bulk MoTe2                              
   1.00000000000000     
     3.518981    0.000000    0.000000
    -1.759491    3.047527    0.000000
     0.000000    0.000000   14.036946
   Mo   Te
     2     4
Direct
   0.333333  0.666667  0.250000
   0.666667  0.333333  0.750000
   0.333333  0.666667  0.620746
   0.666667  0.333333  0.379254
   0.666667  0.333333  0.120746
   0.333333  0.666667  0.879254
 
   28   28  108
  2.6743      2.7284      2.8912      3.1642      3.5502      4.0498      4.6559      5.3509      6.1071      6.8876    
  7.6456      8.3251      8.8659      9.2148      9.3354      9.2148      8.8659      8.3251      7.6456      6.8876    
  6.1071      5.3509      4.6559      4.0498      3.5502      3.1642      2.8912      2.7284      2.7284      2.7284    
  2.8370      3.0548      3.3841      3.8277      4.3848      5.0451      5.7851      6.5685      7.3505      8.0792    
  8.6983      9.1516      9.3931      9.3965      9.1605      8.7080      8.0835      7.3458      6.5576      5.7752    
  5.0414      4.3867      3.8312      3.3863      3.0554      2.8369      2.8914      2.8369      2.8913      3.0558    
  3.3316      3.7208      4.2257      4.8444      5.5629      6.3512      7.1650      7.9508      8.6504      9.2052    
  9.5636      9.6893      9.5686      9.2129      8.6566      7.9512      7.1588      6.3428      5.5585      4.8461    
  4.2301      3.7232      3.3315      3.0553      3.1651      3.0558      3.0549      3.1646      3.3878      3.7252    
  4.1789      4.7508      5.4358      6.2139      7.0493      7.8914      8.6778      9.3417      9.8230      10.076    
  10.075      9.8196      9.3373      8.6761      7.8943      7.0540      6.2176      5.4391      4.7539      4.1793    
  3.7223      3.3853      3.5502      3.3874      3.3314      3.3837      3.5502      3.8332      4.2341      4.7573    
  5.4026      6.1562      6.9907      7.8669      8.7281      9.5014      10.113      10.506      10.641      10.501    
  10.102      9.4901      8.7281      7.8781      7.0013      6.1597      5.4026      4.7562      4.2298      3.8281    
  4.0458      3.8316      3.7248      3.7203      3.8261      4.0478      4.3867      4.8499      5.4457      6.1659    
  6.9839      7.8671      8.7729      9.6346      10.369      10.904      11.189      11.192      10.904      10.360    
  9.6279      8.7785      7.8753      6.9819      6.1589      5.4440      4.8501      4.3828      4.6476      4.3847    
  4.2342      4.1798      4.2258      4.3827      4.6517      5.0376      5.5586      6.2227      7.0078      7.8775    
  8.7969      9.7138      10.546      11.209      11.639      11.797      11.654      11.217      10.543      9.7135    
  8.8010      7.8713      6.9930      6.2185      5.5670      5.0414      5.3433      5.0376      4.8519      4.7593    
  4.7529      4.8463      5.0452      5.3471      5.7689      6.3381      7.0535      7.8807      8.7819      9.7170    
  10.615      11.382      11.940      12.242      12.254      11.957      11.384      10.612      9.7211      8.7821    
  7.8673      7.0455      6.3503      5.7827      6.1071      5.7728      5.5627      5.4473      5.4026      5.4373    
  5.5669      5.7889      6.1071      6.5530      7.1522      7.8896      8.7281      9.6334      10.552      11.391    
  12.056      12.486      12.642      12.498      12.056      11.379      10.551      9.6443      8.7281      7.8810    
  7.1586      6.5701      6.8969      6.5592      6.3419      6.2222      6.1623      6.1526      6.2134      6.3550    
  6.5747      6.8923      7.3458      7.9470      8.6712      9.4882      10.362      11.220      11.959      12.496    
  12.783      12.788      12.494      11.941      11.208      10.374      9.5025      8.6678      7.9420      7.3551    
  7.6585      7.3504      7.1523      7.0502      7.0036      6.9799      6.9866      7.0459      7.1651      7.3551    
  7.6521      8.0877      8.6567      9.3343      10.097      10.899      11.650      12.254      12.649      12.792    
  12.655      12.246      11.633      10.900      10.115      9.3383      8.6439      8.0835      8.3335      8.0878    
  7.9424      7.8838      7.8785      7.8795      7.8691      7.8647      7.8857      7.9462      8.0793      8.3293    
  8.7134      9.2164      9.8192      10.496      11.184      11.793      12.246      12.496      12.506      12.258    
  11.789      11.179      10.506      9.8272      9.2045      8.6995      8.8659      8.7092      8.6502      8.6661    
  8.7281      8.7877      8.8052      8.7787      8.7281      8.6727      8.6438      8.6941      8.8659      9.1640    
  9.5733      10.078      10.641      11.187      11.637      11.939      12.056      11.958      11.648      11.182    
  10.641      10.085      9.5684      9.1497      9.2079      9.1585      9.2122      9.3339      9.4913      9.6376    
  9.7208      9.7176      9.6388      9.5044      9.3413      9.2010      9.1462      9.2114      9.3965      9.6928    
  10.082      10.511      10.906      11.204      11.372      11.381      11.216      10.901      10.502      10.084    
  9.6963      9.3896      9.3259      9.3930      9.5734      9.8239      10.104      10.365      10.548      10.608    
  10.542      10.372      10.120      9.8276      9.5637      9.3896      9.3306      9.3896      9.5637      9.8276    
  10.120      10.372      10.542      10.608      10.548      10.365      10.104      9.8239      9.5734      9.3930    
  9.2079      9.3896      9.6963      10.084      10.502      10.901      11.216      11.381      11.372      11.204    
  10.906      10.511      10.082      9.6928      9.3965      9.2114      9.1462      9.2010      9.3413      9.5044    
  9.6388      9.7176      9.7208      9.6376      9.4913      9.3339      9.2122      9.1585      8.8659      9.1497    
  9.5684      10.085      10.641      11.182      11.648      11.958      12.056      11.939      11.637      11.187    
  10.641      10.078      9.5732      9.1640      8.8659      8.6941      8.6438      8.6727      8.7281      8.7787    
  8.8052      8.7877      8.7281      8.6661      8.6502      8.7092      8.3335      8.6995      9.2045      9.8272    
  10.506      11.179      11.789      12.258      12.506      12.496      12.246      11.793      11.184      10.496    
  9.8192      9.2164      8.7134      8.3293      8.0793      7.9462      7.8857      7.8647      7.8691      7.8795    
  7.8785      7.8838      7.9424      8.0878      7.6585      8.0835      8.6439      9.3383      10.115      10.900    
  11.633      12.246      12.655      12.792      12.649      12.254      11.650      10.899      10.097      9.3343    
  8.6567      8.0877      7.6521      7.3551      7.1651      7.0459      6.9866      6.9799      7.0036      7.0502    
  7.1523      7.3504      6.8969      7.3551      7.9420      8.6678      9.5025      10.374      11.208      11.941    
  12.494      12.788      12.783      12.496      11.959      11.220      10.362      9.4882      8.6712      7.9470    
  7.3458      6.8923      6.5747      6.3550      6.2134      6.1526      6.1623      6.2222      6.3419      6.5592    
  6.1071      6.5701      7.1586      7.8810      8.7281      9.6443      10.551      11.379      12.056      12.498    
  12.642      12.486      12.056      11.391      10.552      9.6334      8.7281      7.8896      7.1522      6.5530    
  6.1071      5.7889      5.5669      5.4373      5.4026      5.4473      5.5627      5.7728      5.3433      5.7827    
  6.3503      7.0455      7.8673      8.7821      9.7211      10.612      11.384      11.957      12.254      12.242    
  11.940      11.382      10.615      9.7170      8.7819      7.8807      7.0535      6.3381      5.7689      5.3471    
  5.0452      4.8463      4.7529      4.7593      4.8519      5.0376      4.6476      5.0414      5.5670      6.2185    
  6.9930      7.8713      8.8010      9.7135      10.543      11.217      11.654      11.797      11.639      11.209    
  10.546      9.7138      8.7969      7.8775      7.0078      6.2227      5.5586      5.0376      4.6517      4.3827    
  4.2258      4.1798      4.2342      4.3847      4.0458      4.3828      4.8501      5.4440      6.1589      6.9819    
  7.8753      8.7785      9.6279      10.360      10.904      11.192      11.189      10.904      10.369      9.6346    
  8.7729      7.8671      6.9839      6.1659      5.4457      4.8499      4.3867      4.0478      3.8261      3.7203    
  3.7248      3.8316      3.5502      3.8281      4.2298      4.7562      5.4026      6.1597      7.0013      7.8781    
  8.7281      9.4901      10.102      10.501      10.641      10.506      10.113      9.5014      8.7281      7.8669    
  6.9907      6.1562      5.4026      4.7573      4.2341      3.8332      3.5502      3.3837      3.3314      3.3874    
  3.1651      3.3853      3.7223      4.1793      4.7539      5.4391      6.2176      7.0540      7.8943      8.6761    
  9.3373      9.8196      10.075      10.076      9.8230      9.3418      8.6778      7.8914      7.0493      6.2139    
  5.4358      4.7508      4.1789      3.7252      3.3878      3.1646      3.0549      3.0558      2.8914      3.0553    
  3.3315      3.7232      4.2301      4.8461      5.5585      6.3428      7.1588      7.9512      8.6566      9.2129    
  9.5686      9.6893      9.5636      9.2052      8.6504      7.9508      7.1650      6.3512      5.5629      4.8444    
  4.2257      3.7208      3.3316      3.0558      2.8913      2.8369      2.7284      2.8369      3.0554      3.3863    
  3.8312      4.3867      5.0414      5.7752      6.5576      7.3458      8.0835      8.7080      9.1605      9.3965    
  9.3931      9.1516      8.6983      8.0792      7.3505      6.5685      5.7851      5.0451      4.3848      3.8277    
  3.3841      3.0548      2.8370      2.7284      2.7454      2.8019      2.9721      3.2584      3.6646      4.1919    
  4.8337      5.5719      6.3773      7.2106      8.0214      8.7493      9.3292      9.7034      9.8327      9.7033    
  9.3292      8.7498      8.0222      7.2112      6.3773      5.5715      4.8333      4.1917      3.6646      3.2585    
  2.9722      2.8019      2.8018      2.8019      2.9247      3.1720      3.5477      4.0564      4.6990      5.4650    
  6.3284      7.2476      8.1694      9.0313      9.7650      10.303      10.589      10.592      10.311      9.7748    
  9.0359      8.1649      7.2368      6.3183      5.4611      4.7008      4.0599      3.5499      3.1726      2.9246    
  2.9723      2.9060      2.9723      3.1731      3.5116      3.9927      4.6216      5.3975      6.3050      7.3078    
  8.3502      9.3628      10.268      10.989      11.455      11.618      11.459      10.996      10.274      9.3627    
  8.3436      7.2993      6.3009      5.3996      4.6262      3.9953      3.5115      3.1725      3.2593      3.1163    
  3.1154      3.2590      3.5515      3.9974      4.6023      5.3713      6.2989      7.3605      8.5085      9.6731    
  10.767      11.695      12.371      12.727      12.726      12.368      11.691      10.765      9.6753      8.5129    
  7.3646      6.3028      5.3746      4.6027      3.9944      3.5490      3.6646      3.4352      3.3576      3.4317    
  3.6646      4.0621      4.6305      5.3782      6.3070      7.4000      8.6199      9.9080      11.179      12.326    
  13.238      13.826      14.029      13.822      13.227      12.315      11.179      9.9190      8.6307      7.4038    
  6.3070      5.3768      4.6260      4.0571      4.1879      3.8629      3.7021      3.6978      3.8575      4.1896    
  4.7008      5.4037      6.3098      7.4103      8.6713      10.043      11.453      12.797      13.948      14.790    
  15.239      15.241      14.791      13.940      12.791      11.459      10.051      8.6694      7.4030      6.3074    
  5.4034      4.6971      4.8254      4.3955      4.1475      4.0614      4.1396      4.3934      4.8289      5.4570    
  6.3010      7.3700      8.6376      10.053      11.556      13.053      14.417      15.508      16.217      16.472    
  16.231      15.515      14.414      13.053      11.560      10.047      8.6228      7.3654      6.3089      5.4610    
  5.5644      5.0243      4.6862      4.5190      4.5130      4.6811      5.0314      5.5675      6.3117      7.2943    
  8.5125      9.9220      11.463      13.057      14.586      15.898      16.860      17.377      17.388      16.877    
  15.901      14.582      13.061      11.462      9.9089      8.5049      7.3064      6.3254      6.3773      5.7321    
  5.3040      5.0599      4.9733      5.0508      5.3085      5.7477      6.3773      7.2319      8.3366      9.6704    
  11.179      12.797      14.422      15.908      17.095      17.864      18.139      17.876      17.095      15.896    
  14.421      12.807      11.179      9.6628      8.3434      7.2485      7.2199      6.4890      5.9796      5.6665    
  5.5109      5.5017      5.6583      5.9923      6.5043      7.2161      8.1650      9.3582      10.759      12.313    
  13.942      15.519      16.878      17.874      18.406      18.410      17.873      16.861      15.507      13.953    
  12.327      10.757      9.3540      8.1737      8.0343      7.2503      6.6807      6.3120      6.1051      6.0284    
  6.0886      6.3074      6.6926      7.2553      8.0291      9.0403      10.274      11.687      13.223      14.785    
  16.227      17.389      18.145      18.414      18.151      17.381      16.211      14.787      13.240      11.691    
  10.262      9.0358      8.7578      7.9598      7.3630      6.9592      6.7199      6.6031      6.5930      6.7062    
  6.9601      7.3660      7.9518      8.7542      9.7804      11.000      12.367      13.817      15.234      16.468    
  17.381      17.875      17.884      17.392      16.464      15.230      13.827      12.375      10.988      9.7667    
  9.3292      8.5579      7.9735      7.5647      7.3129      7.1796      7.1324      7.1712      7.3129      7.5705    
  7.9667      8.5430      9.3292      10.315      11.464      12.729      14.029      15.237      16.215      16.859    
  17.095      16.878      16.225      15.232      14.029      12.736      11.459      10.301      9.6964      8.9904    
  8.4579      8.0809      7.8434      7.7146      7.6565      7.6537      7.7165      7.8568      8.0882      8.4466    
  8.9779      9.6997      10.592      11.621      12.733      13.832      14.792      15.503      15.889      15.898    
  15.514      14.787      13.822      12.735      11.624      10.586      9.8231      9.2160      8.7690      8.4599    
  8.2690      8.1713      8.1279      8.1107      8.1227      8.1783      8.2854      8.4639      8.7594      9.2124    
  9.8279      10.585      11.455      12.375      13.244      13.951      14.413      14.579      14.418      13.944    
  13.229      12.372      11.464      10.589      9.6963      9.2125      8.8747      8.6610      8.5459      8.5076    
  8.5098      8.5117      8.5019      8.4977      8.5127      8.5559      8.6590      8.8711      9.2196      9.7001    
  10.298      10.985      11.695      12.329      12.801      13.057      13.061      12.801      12.316      11.687    
  10.996      10.310      9.3292      8.9814      8.7640      8.6621      8.6425      8.6827      8.7552      8.8136    
  8.8241      8.7933      8.7440      8.6874      8.6425      8.6548      8.7689      8.9961      9.3292      9.7611    
  10.262      10.762      11.179      11.458      11.564      11.468      11.179      10.755      10.268      9.7764    
  8.7582      8.5482      8.4500      8.4634      8.5506      8.6796      8.8309      8.9668      9.0383      9.0277    
  8.9539      8.8354      8.6851      8.5397      8.4549      8.4624      8.5623      8.7533      9.0314      9.3585    
  9.6677      9.9059      10.044      10.055      9.9199      9.6649      9.3538      9.0404      8.0351      7.9558    
  7.9669      8.0853      8.2806      8.5069      8.7395      8.9543      9.1046      9.1517      9.0977      8.9628    
  8.7576      8.5055      8.2621      8.0814      7.9804      7.9598      8.0275      8.1737      8.3503      8.5053    
  8.6160      8.6675      8.6336      8.5093      8.3367      8.1693      7.2205      7.2553      7.3620      7.5659    
  7.8551      8.1805      8.5013      8.7949      9.0256      9.1468      9.1418      9.0268      8.8145      8.5147    
  8.1685      7.8401      7.5701      7.3679      7.2455      7.2150      7.2534      7.3113      7.3601      7.3966    
  7.4069      7.3695      7.2979      7.2377      6.3773      6.5000      6.6865      6.9556      7.3129      7.7220    
  8.1319      8.5096      8.8241      9.0289      9.0909      9.0162      8.8241      8.5223      8.1323      7.7102    
  7.3129      6.9653      6.6806      6.4825      6.3773      6.3320      6.3088      6.3004      6.3070      6.3112    
  6.3048      6.3153      5.5639      5.7419      5.9880      6.3070      6.7085      7.1743      7.6571      8.1147    
  8.5147      8.8128      8.9623      8.9498      8.7942      8.5125      8.1187      7.6525      7.1735      6.7222    
  6.3155      5.9756      5.7280      5.5684      5.4651      5.3994      5.3732      5.3801      5.4055      5.4571    
  4.8249      5.0278      5.3087      5.6632      6.0946      6.5949      7.1280      7.6491      8.1231      8.5111    
  8.7620      8.8399      8.7464      8.5026      8.1271      7.6497      7.1236      6.6010      6.1095      5.6670    
  5.2997      5.0243      4.8298      4.6970      4.6216      4.6032      4.6306      4.6989      4.1877      4.3935    
  4.6847      5.0572      5.5078      6.0305      6.5991      7.1705      7.7046      8.1664      8.5112      8.6928    
  8.6898      8.5106      8.1755      7.7121      7.1651      6.5909      6.0326      5.5147      5.0583      4.6840    
  4.3977      4.1901      4.0549      3.9923      3.9970      4.0606      3.6646      3.8594      4.1434      4.5161    
  4.9733      5.5086      6.1034      6.7199      7.3129      7.8419      8.2669      8.5450      8.6425      8.5497    
  8.2785      7.8536      7.3129      6.7086      6.0930      5.5055      4.9733      4.5168      4.1474      3.8646    
  3.6646      3.5473      3.5114      3.5511      3.2594      3.4332      3.6997      4.0609      4.5137      5.0519    
  5.6622      6.3160      6.9698      7.5748      8.0843      8.4554      8.6517      8.6528      8.4589      8.0887    
  7.5760      6.9662      6.3110      5.6588      5.0492      4.5109      4.0605      3.7026      3.4357      3.2588    
  3.1721      3.1731      2.9724      3.1158      3.3577      3.7007      4.1436      4.6805      5.2996      5.9799    
  6.6867      7.3719      7.9803      8.4590      8.7642      8.8675      8.7592      8.4511      7.9737      7.3709    
  6.6925      5.9883      5.3042      4.6790      4.1394      3.6983      3.3579      3.1163      2.9722      2.9246    
  2.8018      2.9060      3.1159      3.4342      3.8627      4.3976      5.0279      5.7339      6.4868      7.2454    
  7.9559      8.5572      8.9926      9.2196      9.2161      8.9836      8.5475      7.9518      7.2504      6.4978    
  5.7437      5.0314      4.3956      3.8592      3.4322      3.1154      2.9061      2.8019      2.9578      3.0218    
  3.2151      3.5423      4.0103      4.6228      5.3744      6.2459      7.2036      8.2006      9.1752      10.053    
  10.753      11.206      11.362      11.205      10.753      10.054      9.1768      8.2018      7.2036      6.2449    
  5.3735      4.6224      4.0103      3.5425      3.2151      3.0218      3.0217      3.0217      3.1700      3.4704    
  3.9308      4.5600      5.3622      6.3271      7.4243      8.6026      9.7924      10.910      11.865      12.565    
  12.937      12.940      12.573      11.874      10.915      9.7882      8.5917      7.4141      6.3229      5.3639    
  4.5636      3.9330      3.4710      3.1699      3.2153      3.1310      3.2153      3.4715      3.9074      4.5335    
  5.3604      6.3903      7.6054      8.9600      10.380      11.768      13.015      14.009      14.653      14.877    
  14.658      14.017      13.020      11.767      10.372      8.9513      7.6016      6.3927      5.3652      4.5361    
  3.9073      3.4710      3.5433      3.3526      3.3518      3.5430      3.9348      4.5384      5.3671      6.4315    
  7.7275      9.2231      10.853      12.515      14.084      15.421      16.396      16.911      16.910      16.393    
  15.416      14.082      12.517      10.857      9.2276      7.7319      6.4352      5.3675      4.5354      3.9322    
  4.0103      3.6907      3.5839      3.6873      4.0103      4.5659      5.3698      6.4391      7.7798      9.3722    
  11.164      13.065      14.946      16.646      18.001      18.876      19.178      18.872      17.991      16.635    
  14.946      13.076      11.175      9.3765      7.7798      6.4372      5.3650      4.5609      4.6188      4.1472    
  3.9161      3.9120      4.1419      4.6201      5.3639      6.3970      7.7393      9.3831      11.284      13.364    
  15.507      17.548      19.295      20.574      21.252      21.255      20.574      19.288      17.543      15.513    
  13.372      11.282      9.3757      7.7362      6.3963      5.3604      5.3661      4.7198      4.3481      4.2222    
  4.3405      4.7176      5.3688      6.3186      7.6017      9.2332      11.182      13.375      15.709      18.031    
  20.139      21.824      22.917      23.303      22.930      21.832      20.136      18.031      15.713      13.369    
  11.167      9.2283      7.6091      6.3228      6.2382      5.4000      4.8731      4.6152      4.6097      4.8686    
  5.4067      6.2407      7.4070      8.9461      10.856      13.079      15.517      18.035      20.438      22.495    
  23.999      24.802      24.812      24.015      22.497      20.434      18.038      15.516      13.066      10.849    
  8.9581      7.4207      7.2036      6.1695      5.4778      5.0821      4.9467      5.0739      5.4826      6.1848    
  7.2036      8.5865      10.365      12.512      14.946      17.548      20.145      22.504      24.385      25.601    
  26.029      25.612      24.385      22.493      20.144      17.557      14.946      12.505      10.372      8.6028    
  8.2100      6.9959      6.1415      5.6081      5.3458      5.3372      5.6004      6.1540      7.0111      8.2070    
  9.7882      11.762      14.076      16.633      19.290      21.835      24.017      25.610      26.456      26.460    
  25.609      24.000      21.823      19.300      16.646      14.074      11.759      9.7964      9.1882      7.8302    
  6.8325      6.1700      5.7923      5.6600      5.7762      6.1652      6.8438      7.8355      9.1841      10.920    
  13.020      15.413      17.986      20.569      22.926      24.813      26.035      26.464      26.041      24.806    
  22.911      20.571      18.002      15.417      13.009      10.915      10.061      8.6104      7.5070      6.7356    
  6.2581      6.0247      6.0149      6.2445      6.7356      7.5092      8.6028      10.058      11.880      14.020    
  16.392      18.867      21.248      23.299      24.805      25.611      25.620      24.816      23.295      21.244    
  18.876      16.400      14.009      11.867      10.753      9.2703      8.1123      7.2672      6.7104      6.3973    
  6.2911      6.3894      6.7104      7.2723      8.1051      9.2557      10.753      12.577      14.663      16.913    
  19.178      21.250      22.915      23.999      24.385      24.016      22.924      21.246      19.178      16.919    
  14.658      12.563      11.199      9.7489      8.5941      7.7230      7.1189      6.7483      6.5705      6.5681    
  6.7509      7.1325      7.7301      8.5827      9.7363      11.202      12.940      14.881      16.916      18.881    
  20.576      21.820      22.486      22.495      21.831      20.571      18.872      16.918      14.884      12.933    
  11.352      9.9991      8.9044      8.0594      7.4507      7.0548      6.8328      6.7562      6.8278      7.0623    
  7.4675      8.0636      8.8946      9.9954      11.357      12.933      14.653      16.400      18.007      19.298    
  20.135      20.431      20.141      19.292      17.992      16.397      14.663      12.937      11.198      9.9955    
  9.0099      8.2388      7.6687      7.2851      7.0558      6.9412      6.9310      7.0431      7.2903      7.6791    
  8.2368      9.0062      10.003      11.202      12.560      14.005      15.420      16.649      17.552      18.034    
  18.038      17.552      16.636      15.412      14.017      12.572      10.753      9.7397      8.8993      8.2400    
  7.7452      7.4053      7.2018      7.0928      7.0466      7.0714      7.1899      7.4102      7.7452      8.2323    
  8.9042      9.7549      10.753      11.861      13.009      14.080      14.946      15.512      15.716      15.522    
  14.946      14.072      13.014      11.877      10.062      9.2605      8.5860      8.0631      7.6735      7.4020    
  7.2432      7.1686      7.1334      7.1221      7.1548      7.2479      7.4078      7.6621      8.0541      8.5988    
  9.2750      10.056      10.910      11.764      12.510      13.063      13.366      13.377      13.077      12.507    
  11.758      10.920      9.1898      8.6066      8.1053      7.7273      7.4627      7.2844      7.1852      7.1553    
  7.1561      7.1526      7.1488      7.1644      7.2044      7.2829      7.4434      7.7235      8.1197      8.6104    
  9.1809      9.7964      10.380      10.850      11.160      11.280      11.178      10.853      10.365      9.7923    
  8.2111      7.8355      7.5055      7.2679      7.1310      7.0645      7.0468      7.0731      7.1199      7.1473    
  7.1421      7.1212      7.0938      7.0610      7.0518      7.1154      7.2729      7.5122      7.8250      8.2047    
  8.6080      8.9633      9.2227      9.3691      9.3799      9.2328      8.9495      8.5920      7.2036      7.0071    
  6.8379      6.7313      6.7104      6.7565      6.8373      6.9390      7.0466      7.1234      7.1416      7.1099    
  7.0466      6.9524      6.8374      6.7436      6.7104      6.7421      6.8324      6.9890      7.2036      7.4278    
  7.6091      7.7289      7.7798      7.7407      7.6053      7.4105      6.2373      6.1792      6.1499      6.1646    
  6.2464      6.3921      6.5714      6.7604      6.9445      7.0921      7.1639      7.1506      7.0723      6.9423    
  6.7647      6.5662      6.3908      6.2605      6.1737      6.1373      6.1652      6.2425      6.3271      6.3920    
  6.4333      6.4408      6.3988      6.3186      5.3651      5.4033      5.4828      5.6051      5.7819      6.0165    
  6.2864      6.5629      6.8280      7.0573      7.2091      7.2527      7.1925      7.0483      6.8325      6.5639    
  6.2817      6.0224      5.7969      5.6086      5.4733      5.4000      5.3707      5.3603      5.3604      5.3679    
  5.3699      5.3621      4.6184      4.7176      4.8719      5.0799      5.3431      5.6623      6.0209      6.3881    
  6.7380      7.0496      7.2888      7.4160      7.4127      7.2881      7.0593      6.7462      6.3829      6.0127    
  5.6645      5.3498      5.0804      4.8708      4.7221      4.6211      4.5586      4.5331      4.5380      4.5645    
  4.0103      4.1437      4.3441      4.6126      4.9467      5.3440      5.7913      6.2586      6.7104      7.1170    
  7.4482      7.6676      7.7452      7.6725      7.4602      7.1291      6.7104      6.2469      5.7809      5.3412    
  4.9467      4.6129      4.3479      4.1490      4.0103      3.9304      3.9073      3.9344      3.5434      3.6887    
  3.9138      4.2216      4.6101      5.0744      5.6040      6.1742      6.7463      7.2773      7.7263      8.0547    
  8.2291      8.2303      8.0583      7.7307      7.2781      6.7421      6.1689      5.6010      5.0722      4.6074    
  4.2211      3.9166      3.6912      3.5427      3.4705      3.4716      3.2154      3.3522      3.5841      3.9148    
  4.3444      4.8674      5.4731      6.1414      6.8382      7.5160      8.1195      8.5955      8.8996      9.0025    
  8.8945      8.5875      8.1126      7.5145      6.8436      6.1497      5.4781      4.8663      4.3404      3.9125    
  3.5842      3.3526      3.2151      3.1699      3.0217      3.1310      3.3522      3.6898      4.1472      4.7220    
  5.4034      6.1708      6.9930      7.8250      8.6066      9.2701      9.7515      10.003      9.9992      9.7423    
  9.2604      8.6028      7.8303      7.0042      6.1805      5.4067      4.7199      4.1437      3.6878      3.3518    
  3.1311      3.0217      3.3097      3.3866      3.6200      4.0183      4.5935      5.3539      6.2965      7.4002    
  8.6245      9.9084      11.170      12.310      13.222      13.812      14.016      13.811      13.222      12.312    
  11.173      9.9101      8.6245      7.3989      6.2950      5.3532      4.5935      4.0186      3.6201      3.3866    
  3.3865      3.3865      3.5731      3.9539      4.5431      5.3571      6.4050      7.6778      9.1388      10.721    
  12.330      13.850      15.151      16.106      16.613      16.616      16.114      15.161      13.855      12.327    
  10.710      9.1282      7.6734      6.4066      5.3607      4.5455      3.9545      3.5730      3.6202      3.5106    
  3.6203      3.9551      4.5299      5.3649      6.4795      7.8809      9.5485      11.422      13.401      15.347    
  17.103      18.506      19.415      19.732      19.420      18.514      17.108      15.346      13.393      11.414    
  9.5449      7.8837      6.4846      5.3677      4.5299      3.9545      4.0193      3.7637      3.7629      4.0191    