bulk MoTe2                              
   1.00000000000000     
     3.518981    0.000000    0.000000
    -1.759491    3.047527    0.000000
     0.000000    0.000000   14.036946
   Mo   Te
     2     4
Direct
   0.333333  0.666667  0.250000
   0.666667  0.333333  0.750000
   0.333333  0.666667  0.620746
   0.666667  0.333333  0.379254
   0.666667  0.333333  0.120746
   0.333333  0.666667  0.879254
 
   28   28  108
 0.26743153390E+01 0.27284472652E+01 0.28911934626E+01 0.31641924011E+01 0.35502239369E+01
 0.40497950146E+01 0.46558834984E+01 0.53509041200E+01 0.61071268482E+01 0.68876216668E+01
 0.76456452321E+01 0.83250738933E+01 0.88659435386E+01 0.92148404453E+01 0.93354013747E+01
 0.92148408535E+01 0.88659442605E+01 0.83250747023E+01 0.76456458162E+01 0.68876218006E+01
 0.61071265531E+01 0.53509036530E+01 0.46558831713E+01 0.40497949941E+01 0.35502241751E+01
 0.31641927224E+01 0.28911937115E+01 0.27284473858E+01 0.27283674403E+01 0.27284092608E+01
 0.28369715024E+01 0.30548323917E+01 0.33841385815E+01 0.38276891466E+01 0.43847919555E+01
 0.50451449718E+01 0.57850808313E+01 0.65685423435E+01 0.73504889305E+01 0.80792436573E+01
 0.86983215320E+01 0.91516248571E+01 0.93931026237E+01 0.93965220971E+01 0.91604530486E+01
 0.87080360316E+01 0.80835441394E+01 0.73457709234E+01 0.65576387293E+01 0.57751834887E+01
 0.50414370809E+01 0.43867043369E+01 0.38311868928E+01 0.33862617227E+01 0.30553726019E+01
 0.28369306610E+01 0.28914088512E+01 0.28368916598E+01 0.28912909922E+01 0.30557774547E+01
 0.33316351698E+01 0.37207959865E+01 0.42256819896E+01 0.48443532259E+01 0.55628779122E+01
 0.63511772583E+01 0.71649969990E+01 0.79508258879E+01 0.86503771710E+01 0.92052132108E+01
 0.95636275786E+01 0.96893223019E+01 0.95685934457E+01 0.92129245874E+01 0.86565993585E+01
 0.79512400899E+01 0.71587854983E+01 0.63427594790E+01 0.55585035091E+01 0.48461492717E+01
 0.42300561166E+01 0.37232396279E+01 0.33315281098E+01 0.30552926601E+01 0.31651017107E+01
 0.30558215046E+01 0.30548686367E+01 0.31646415610E+01 0.33878044343E+01 0.37252440643E+01
 0.41788760682E+01 0.47508311744E+01 0.54357809933E+01 0.62138707145E+01 0.70492633468E+01
 0.78913903295E+01 0.86778020151E+01 0.93417482620E+01 0.98229658338E+01 0.10075885140E+02
 0.10074875371E+02 0.98196337460E+01 0.93373450697E+01 0.86761325047E+01 0.78942772936E+01
 0.70539647662E+01 0.62175939309E+01 0.54390740034E+01 0.47539481607E+01 0.41793229444E+01
 0.37223307595E+01 0.33852729090E+01 0.35502242962E+01 0.33873797035E+01 0.33314202156E+01
 0.33837346847E+01 0.35502351374E+01 0.38332254712E+01 0.42341095269E+01 0.47572823811E+01
 0.54026309997E+01 0.61562169103E+01 0.69907199295E+01 0.78668805674E+01 0.87281294384E+01
 0.95013902167E+01 0.10113154114E+02 0.10505671803E+02 0.10640551960E+02 0.10501123561E+02
 0.10101968457E+02 0.94901058510E+01 0.87281229179E+01 0.78780525313E+01 0.70013135608E+01
 0.61596810274E+01 0.54026293163E+01 0.47562001896E+01 0.42298411178E+01 0.38281060898E+01
 0.40458052436E+01 0.38315992659E+01 0.37247859953E+01 0.37203452565E+01 0.38260746611E+01
 0.40477997278E+01 0.43867374144E+01 0.48499335797E+01 0.54457265271E+01 0.61659008583E+01
 0.69839333519E+01 0.78670992608E+01 0.87729138630E+01 0.96346184402E+01 0.10369029753E+02
 0.10903811350E+02 0.11189042592E+02 0.11191860679E+02 0.10904314195E+02 0.10360406686E+02
 0.96279184968E+01 0.87785109373E+01 0.78753124878E+01 0.69819324352E+01 0.61588520456E+01
 0.54439729301E+01 0.48501393260E+01 0.43827945455E+01 0.46475576244E+01 0.43847119722E+01
 0.42342227756E+01 0.41797848707E+01 0.42257836758E+01 0.43827474327E+01 0.46517115795E+01
 0.50376041558E+01 0.55586153159E+01 0.62226887311E+01 0.70077519882E+01 0.78775421990E+01
 0.87968556231E+01 0.97138224678E+01 0.10546495145E+02 0.11208744166E+02 0.11639362895E+02
 0.11797240731E+02 0.11654115188E+02 0.11216856665E+02 0.10542922167E+02 0.97135243403E+01
 0.88010242245E+01 0.78713226232E+01 0.69929879056E+01 0.62185029618E+01 0.55670444962E+01
 0.50413572871E+01 0.53433241228E+01 0.50376450878E+01 0.48519327859E+01 0.47593195437E+01
 0.47528632442E+01 0.48463435396E+01 0.50451837521E+01 0.53471166947E+01 0.57689489831E+01
 0.63381240070E+01 0.70535054540E+01 0.78806973724E+01 0.87819193239E+01 0.97170175832E+01
 0.10615353943E+02 0.11382063102E+02 0.11939829238E+02 0.12242222553E+02 0.12254031688E+02
 0.11957447516E+02 0.11384173465E+02 0.10611564007E+02 0.97211041491E+01 0.87821008687E+01
 0.78673120456E+01 0.70454762539E+01 0.63503393402E+01 0.57826834052E+01 0.61071267217E+01
 0.57727681989E+01 0.55626627412E+01 0.54472644049E+01 0.54026305694E+01 0.54373234008E+01
 0.55669407021E+01 0.57889210861E+01 0.61071302335E+01 0.65530373785E+01 0.71522310977E+01
 0.78895925872E+01 0.87281318664E+01 0.96334124993E+01 0.10551840928E+02 0.11391439394E+02
 0.12056347543E+02 0.12485616340E+02 0.12642389871E+02 0.12497612499E+02 0.12056363058E+02
 0.11379360681E+02 0.10551248089E+02 0.96443012281E+01 0.87281231044E+01 0.78809759220E+01
 0.71585705188E+01 0.65701114220E+01 0.68968872348E+01 0.65591974502E+01 0.63419122428E+01
 0.62222271058E+01 0.61623210122E+01 0.61526451333E+01 0.62134228704E+01 0.63549685116E+01
 0.65746949080E+01 0.68922528504E+01 0.73458150694E+01 0.79470174174E+01 0.86711844254E+01
 0.94881895636E+01 0.10362395650E+02 0.11220344174E+02 0.11959057378E+02 0.12495641474E+02
 0.12783210814E+02 0.12787844575E+02 0.12494485264E+02 0.11940602643E+02 0.11207591621E+02
 0.10373662215E+02 0.95025323156E+01 0.86677763071E+01 0.79419749117E+01 0.73551162960E+01
 0.76585138421E+01 0.73504098078E+01 0.71523449832E+01 0.70501727650E+01 0.70035879327E+01
 0.69799431629E+01 0.69865578084E+01 0.70459250221E+01 0.71650982247E+01 0.73550797731E+01
 0.76520865462E+01 0.80877398530E+01 0.86567065763E+01 0.93343005261E+01 0.10097203498E+02
 0.10898833948E+02 0.11649964529E+02 0.12254479692E+02 0.12648828955E+02 0.12792476173E+02
 0.12655257907E+02 0.12246452169E+02 0.11632921843E+02 0.10900324665E+02 0.10114836749E+02
 0.93382542691E+01 0.86439467218E+01 0.80834642909E+01 0.83335284791E+01 0.80877784805E+01
 0.79423734928E+01 0.78838466096E+01 0.78784957055E+01 0.78795429929E+01 0.78690883308E+01
 0.78646634105E+01 0.78856526784E+01 0.79462045941E+01 0.80792852953E+01 0.83292897753E+01
 0.87133887016E+01 0.92164228293E+01 0.98191954417E+01 0.10496061142E+02 0.11184464765E+02
 0.11793018908E+02 0.12246026078E+02 0.12496453241E+02 0.12506462815E+02 0.12258256231E+02
 0.11788787439E+02 0.11179417540E+02 0.10506416792E+02 0.98271788832E+01 0.92044711952E+01
 0.86995025707E+01 0.88659443741E+01 0.87092029252E+01 0.86501636242E+01 0.86660943966E+01
 0.87281304183E+01 0.87877044100E+01 0.88051815178E+01 0.87786987212E+01 0.87281311133E+01
 0.86727178538E+01 0.86438369713E+01 0.86941336881E+01 0.88659441165E+01 0.91639874912E+01
 0.95732511422E+01 0.10077914628E+02 0.10640551937E+02 0.11186811258E+02 0.11637096706E+02
 0.11938992151E+02 0.12056347872E+02 0.11958209510E+02 0.11647689095E+02 0.11182232861E+02
 0.10640552444E+02 0.10084767021E+02 0.95683786778E+01 0.91497330945E+01 0.92078626676E+01
 0.91585242941E+01 0.92121931014E+01 0.93338627846E+01 0.94912523422E+01 0.96376074626E+01
 0.97208010225E+01 0.97176191482E+01 0.96388265512E+01 0.95044320457E+01 0.93412768476E+01
 0.92009886959E+01 0.91462075978E+01 0.92113655637E+01 0.93965491258E+01 0.96927894251E+01
 0.10081736524E+02 0.10511493131E+02 0.10905812356E+02 0.11204100896E+02 0.11372068973E+02
 0.11381462177E+02 0.11215722980E+02 0.10900823521E+02 0.10501854893E+02 0.10083772714E+02
 0.96963008704E+01 0.93896239940E+01 0.93258868475E+01 0.93930234362E+01 0.95733587028E+01
 0.98238766216E+01 0.10103641209E+02 0.10365040747E+02 0.10547684234E+02 0.10607774346E+02
 0.10542326474E+02 0.10371660519E+02 0.10119584465E+02 0.98276466583E+01 0.95637340161E+01
 0.93895692003E+01 0.93306383183E+01 0.93895708977E+01 0.95637366963E+01 0.98276492490E+01
 0.10119586174E+02 0.10371661317E+02 0.10542326911E+02 0.10607774818E+02 0.10547684522E+02
 0.10365040345E+02 0.10103639995E+02 0.98238750607E+01 0.95733574211E+01 0.93930227706E+01
 0.92078621051E+01 0.93896240666E+01 0.96963016800E+01 0.10083774153E+02 0.10501856417E+02
 0.10900824416E+02 0.11215722991E+02 0.11381461746E+02 0.11372068690E+02 0.11204100739E+02
 0.10905811645E+02 0.10511491279E+02 0.10081733742E+02 0.96927866786E+01 0.93965474977E+01
 0.92113656531E+01 0.91462092646E+01 0.92009911644E+01 0.93412791399E+01 0.95044335662E+01
 0.96388273574E+01 0.97176196129E+01 0.97208012623E+01 0.96376072091E+01 0.94912513656E+01
 0.93338612843E+01 0.92121915861E+01 0.91585231763E+01 0.88659434244E+01 0.91497326117E+01
 0.95683788373E+01 0.10084767988E+02 0.10640554013E+02 0.11182234360E+02 0.11647689871E+02
 0.11958209540E+02 0.12056347742E+02 0.11938992308E+02 0.11637096850E+02 0.11186810595E+02
 0.10640550027E+02 0.10077911897E+02 0.95732486239E+01 0.91639861630E+01 0.88659443969E+01
 0.86941352956E+01 0.86438391275E+01 0.86727197468E+01 0.87281323442E+01 0.87786993570E+01
 0.88051817310E+01 0.87877041633E+01 0.87281295690E+01 0.86660930192E+01 0.86501620778E+01
 0.87092015880E+01 0.83335274450E+01 0.86995017985E+01 0.92044707786E+01 0.98271791080E+01
 0.10506417864E+02 0.11179419202E+02 0.11788789004E+02 0.12258257149E+02 0.12506463170E+02
 0.12496453553E+02 0.12246026590E+02 0.11793019198E+02 0.11184464151E+02 0.10496059414E+02
 0.98191931367E+01 0.92164208855E+01 0.87133878773E+01 0.83292902730E+01 0.80792867334E+01
 0.79462062867E+01 0.78856540516E+01 0.78646642506E+01 0.78690886766E+01 0.78795428676E+01
 0.78784950489E+01 0.78838454611E+01 0.79423721114E+01 0.80877771920E+01 0.76585130397E+01
 0.80834636307E+01 0.86439461167E+01 0.93382538730E+01 0.10114836959E+02 0.10900325752E+02
 0.11632923569E+02 0.12246453877E+02 0.12655259077E+02 0.12792476845E+02 0.12648829518E+02
 0.12254480305E+02 0.11649964860E+02 0.10898833527E+02 0.10097202253E+02 0.93342989360E+01
 0.86567053566E+01 0.80877395047E+01 0.76520870966E+01 0.73550808384E+01 0.71650993133E+01
 0.70459258277E+01 0.69865582580E+01 0.69799432478E+01 0.70035875959E+01 0.70501719977E+01
 0.71523439585E+01 0.73504088107E+01 0.68968868409E+01 0.73551160598E+01 0.79419746091E+01
 0.86677758117E+01 0.95025318647E+01 0.10373662333E+02 0.11207592675E+02 0.11940604436E+02
 0.12494487124E+02 0.12787845920E+02 0.12783211595E+02 0.12495642040E+02 0.11959057957E+02
 0.11220344596E+02 0.10362395577E+02 0.94881889141E+01 0.86711835178E+01 0.79470167433E+01
 0.73458149334E+01 0.68922531969E+01 0.65746954477E+01 0.63549689884E+01 0.62134231969E+01
 0.61526453000E+01 0.61623209570E+01 0.62222267548E+01 0.63419116614E+01 0.65591968646E+01
 0.61071266793E+01 0.65701116394E+01 0.71585707777E+01 0.78809758829E+01 0.87281226466E+01
 0.96443006940E+01 0.10551248139E+02 0.11379361767E+02 0.12056364971E+02 0.12497614489E+02
 0.12642391279E+02 0.12485617106E+02 0.12056348072E+02 0.11391440003E+02 0.10551841512E+02
 0.96334127264E+01 0.87281315914E+01 0.78895920227E+01 0.71522306064E+01 0.65530371599E+01
 0.61071302249E+01 0.57889211272E+01 0.55669407244E+01 0.54373234258E+01 0.54026305775E+01
 0.54472643029E+01 0.55626624972E+01 0.57727679506E+01 0.53433241913E+01 0.57826838232E+01
 0.63503400243E+01 0.70454768558E+01 0.78673121707E+01 0.87821004384E+01 0.97211036191E+01
 0.10611564143E+02 0.11384174734E+02 0.11957449631E+02 0.12254033816E+02 0.12242224039E+02
 0.11939830086E+02 0.11382063754E+02 0.10615354681E+02 0.97170182451E+01 0.87819195623E+01
 0.78806970766E+01 0.70535048546E+01 0.63381234258E+01 0.57689485631E+01 0.53471163860E+01
 0.50451834861E+01 0.48463433318E+01 0.47528631202E+01 0.47593194495E+01 0.48519326492E+01
 0.50376449595E+01 0.46475575509E+01 0.50413575622E+01 0.55670452112E+01 0.62185039377E+01
 0.69929887220E+01 0.78713228734E+01 0.88010238894E+01 0.97135239694E+01 0.10542922567E+02
 0.11216858240E+02 0.11654117552E+02 0.11797243040E+02 0.11639364577E+02 0.11208745280E+02
 0.10546496052E+02 0.97138232917E+01 0.87968561318E+01 0.78775421375E+01 0.70077514067E+01
 0.62226879452E+01 0.55586146165E+01 0.50376036239E+01 0.46517111559E+01 0.43827470775E+01
 0.42257834019E+01 0.41797846623E+01 0.42342225693E+01 0.43847117624E+01 0.40458049257E+01
 0.43827944678E+01 0.48501397091E+01 0.54439738192E+01 0.61588531998E+01 0.69819333915E+01
 0.78753128482E+01 0.87785107506E+01 0.96279183776E+01 0.10360407414E+02 0.10904316061E+02
 0.11191863231E+02 0.11189045057E+02 0.10903813274E+02 0.10369031178E+02 0.96346195457E+01
 0.87729146051E+01 0.78670994319E+01 0.69839328984E+01 0.61659000232E+01 0.54457256690E+01
 0.48499329111E+01 0.43867369352E+01 0.40477993546E+01 0.38260743462E+01 0.37203449770E+01
 0.37247857012E+01 0.38315989205E+01 0.35502238156E+01 0.38281056797E+01 0.42298410397E+01
 0.47562006580E+01 0.54026303287E+01 0.61596822815E+01 0.70013145611E+01 0.78780529195E+01
 0.87281228333E+01 0.94901059450E+01 0.10101969418E+02 0.10501125543E+02 0.10640554497E+02
 0.10505674257E+02 0.10113156144E+02 0.95013917929E+01 0.87281305493E+01 0.78668810827E+01
 0.69907197655E+01 0.61562162262E+01 0.54026301473E+01 0.47572816662E+01 0.42341090451E+01
 0.38332251513E+01 0.35502348821E+01 0.33837344358E+01 0.33314199217E+01 0.33873793094E+01
 0.31651012354E+01 0.33852723520E+01 0.37223303344E+01 0.41793229298E+01 0.47539487337E+01
 0.54390750842E+01 0.62175951462E+01 0.70539656249E+01 0.78942775427E+01 0.86761324007E+01
 0.93373452502E+01 0.98196347392E+01 0.10074877196E+02 0.10075887379E+02 0.98229680265E+01
 0.93417501555E+01 0.86778034900E+01 0.78913912481E+01 0.70492635936E+01 0.62138703602E+01
 0.54357803288E+01 0.47508305379E+01 0.41788756423E+01 0.37252438311E+01 0.33878042846E+01
 0.31646414074E+01 0.30548684253E+01 0.30558211794E+01 0.28914085100E+01 0.30552921635E+01
 0.33315275714E+01 0.37232392886E+01 0.42300562281E+01 0.48461499243E+01 0.55585045171E+01
 0.63427604272E+01 0.71587859856E+01 0.79512400400E+01 0.86565991273E+01 0.92129247157E+01
 0.95685942569E+01 0.96893237235E+01 0.95636293049E+01 0.92052149517E+01 0.86503787186E+01
 0.79508270457E+01 0.71649975900E+01 0.63511772550E+01 0.55628775135E+01 0.48443527508E+01
 0.42256816742E+01 0.37207958710E+01 0.33316351547E+01 0.30557774299E+01 0.28912909009E+01
 0.28368914664E+01 0.27283672738E+01 0.28369303443E+01 0.30553721586E+01 0.33862612977E+01
 0.38311867158E+01 0.43867045789E+01 0.50414377054E+01 0.57751842181E+01 0.65576391870E+01
 0.73457708871E+01 0.80835437194E+01 0.87080356039E+01 0.91604529875E+01 0.93965225527E+01
 0.93931035205E+01 0.91516260251E+01 0.86983227786E+01 0.80792447499E+01 0.73504896253E+01
 0.65685425173E+01 0.57850805903E+01 0.50451445975E+01 0.43847917162E+01 0.38276891376E+01
 0.33841387188E+01 0.30548325329E+01 0.28369715607E+01 0.27284092149E+01 0.27453577442E+01
 0.28018881677E+01 0.29721182628E+01 0.32584305227E+01 0.36645809043E+01 0.41919247689E+01
 0.48337479121E+01 0.55719455144E+01 0.63773450117E+01 0.72105941018E+01 0.80214483967E+01
 0.87492906717E+01 0.93292260792E+01 0.97034380075E+01 0.98326580631E+01 0.97032540648E+01
 0.93292199006E+01 0.87497631569E+01 0.80222423007E+01 0.72111826354E+01 0.63773466961E+01
 0.55714870396E+01 0.48332688056E+01 0.41917105115E+01 0.36645880071E+01 0.32584920434E+01
 0.29721537907E+01 0.28019006687E+01 0.28018064713E+01 0.28018543460E+01 0.29246940103E+01
 0.31720299758E+01 0.35476830872E+01 0.40564122915E+01 0.46989789032E+01 0.54650212058E+01
 0.63283899339E+01 0.72476214926E+01 0.81693743423E+01 0.90313188546E+01 0.97650147764E+01
 0.10302692969E+02 0.10588910737E+02 0.10592241241E+02 0.10311377327E+02 0.97747542376E+01
 0.90358679016E+01 0.81649342482E+01 0.72367869888E+01 0.63183207430E+01 0.54610822450E+01
 0.47007814152E+01 0.40599374409E+01 0.35498721696E+01 0.31726007592E+01 0.29246497333E+01
 0.29723354982E+01 0.29059833885E+01 0.29722728994E+01 0.31730511873E+01 0.35116152589E+01
 0.39927342753E+01 0.46215632848E+01 0.53975040711E+01 0.63049807132E+01 0.73077592173E+01
 0.83502107086E+01 0.93628157374E+01 0.10268310548E+02 0.10988621136E+02 0.11454553891E+02
 0.11617563362E+02 0.11459498492E+02 0.10996201879E+02 0.10274182024E+02 0.93626972006E+01
 0.83435533113E+01 0.72992585523E+01 0.63008692600E+01 0.53996401262E+01 0.46261502424E+01
 0.39952616268E+01 0.35115203822E+01 0.31725247556E+01 0.32593478139E+01 0.31163250096E+01
 0.31154394961E+01 0.32589843602E+01 0.35515218725E+01 0.39973883033E+01 0.46023281092E+01
 0.53712544239E+01 0.62988950876E+01 0.73605298863E+01 0.85085117128E+01 0.96730618143E+01
 0.10766733994E+02 0.11694992057E+02 0.12370769151E+02 0.12727020225E+02 0.12726095085E+02
 0.12367600947E+02 0.11690555973E+02 0.10764594484E+02 0.96752662524E+01 0.85129239078E+01
 0.73646104198E+01 0.63027528893E+01 0.53746293021E+01 0.46027414263E+01 0.39944241647E+01
 0.35489587009E+01 0.36645881300E+01 0.34352285827E+01 0.33576107787E+01 0.34317356199E+01
 0.36645919794E+01 0.40620927423E+01 0.46304670727E+01 0.53782249573E+01 0.63069688948E+01
 0.74000056352E+01 0.86199384747E+01 0.99080182347E+01 0.11179214585E+02 0.12325897932E+02
 0.13238285287E+02 0.13826222032E+02 0.14028906041E+02 0.13821808588E+02 0.13227477913E+02
 0.12314983821E+02 0.11179208812E+02 0.99190341549E+01 0.86307099277E+01 0.74038484629E+01
 0.63069696303E+01 0.53767544093E+01 0.46259686735E+01 0.40570510268E+01 0.41879305839E+01
 0.38628551102E+01 0.37020898190E+01 0.36978404154E+01 0.38574559565E+01 0.41895832109E+01
 0.47008116676E+01 0.54036552905E+01 0.63097563557E+01 0.74102611993E+01 0.86712772248E+01
 0.10042618012E+02 0.11452938638E+02 0.12797109689E+02 0.13948138302E+02 0.14790334618E+02
 0.15238737611E+02 0.15241348340E+02 0.14790718632E+02 0.13940026521E+02 0.12791097392E+02
 0.11458789106E+02 0.10050864396E+02 0.86693983042E+01 0.74030491579E+01 0.63073523977E+01
 0.54034021713E+01 0.46970956945E+01 0.48254066688E+01 0.43955213839E+01 0.41475466774E+01
 0.40614433360E+01 0.41395576211E+01 0.43934414811E+01 0.48288517113E+01 0.54570249790E+01
 0.63009674268E+01 0.73699675330E+01 0.86375613839E+01 0.10053463211E+02 0.11555715995E+02
 0.13053422551E+02 0.14416690794E+02 0.15507642954E+02 0.16217465779E+02 0.16471824685E+02
 0.16231371918E+02 0.15515391583E+02 0.14413594672E+02 0.13053447373E+02 0.11559656307E+02
 0.10047102532E+02 0.86228476659E+01 0.73654480364E+01 0.63089134107E+01 0.54610063925E+01
 0.55643523926E+01 0.50243150609E+01 0.46861702350E+01 0.45190129038E+01 0.45130496805E+01
 0.46811273121E+01 0.50314249165E+01 0.55674817849E+01 0.63117037073E+01 0.72943262784E+01
 0.85125017436E+01 0.99220402974E+01 0.11462586608E+02 0.13057041950E+02 0.14586012822E+02
 0.15898469053E+02 0.16860053403E+02 0.17377024800E+02 0.17388158037E+02 0.16876699828E+02
 0.15900546385E+02 0.14582439802E+02 0.13060600489E+02 0.11462180346E+02 0.99089186655E+01
 0.85049334749E+01 0.73064117242E+01 0.63253979166E+01 0.63773468738E+01 0.57320798884E+01
 0.53039929092E+01 0.50598844255E+01 0.49732744361E+01 0.50508201494E+01 0.53085331520E+01
 0.57477362264E+01 0.63773469159E+01 0.72318859749E+01 0.83365997637E+01 0.96703558614E+01
 0.11179215901E+02 0.12796586896E+02 0.14422300211E+02 0.15907519876E+02 0.17094558066E+02
 0.17864494739E+02 0.18139248325E+02 0.17875798834E+02 0.17094559431E+02 0.15896025566E+02
 0.14421457177E+02 0.12806533441E+02 0.11179208979E+02 0.96627549278E+01 0.83433717549E+01
 0.72485370887E+01 0.72198759980E+01 0.64889972875E+01 0.59795749466E+01 0.56665380417E+01
 0.55108684040E+01 0.55017314431E+01 0.56583277918E+01 0.59923062941E+01 0.65043253591E+01
 0.72160983821E+01 0.81649750078E+01 0.93582142676E+01 0.10759333593E+02 0.12312861170E+02
 0.13941904876E+02 0.15518791889E+02 0.16878274543E+02 0.17873947857E+02 0.18405734033E+02
 0.18410090449E+02 0.17872836364E+02 0.16860835518E+02 0.15506680411E+02 0.13952500134E+02
 0.12326658049E+02 0.10756720749E+02 0.93539858989E+01 0.81737217917E+01 0.80343349103E+01
 0.72503399821E+01 0.66806826680E+01 0.63119617419E+01 0.61050867348E+01 0.60283893492E+01
 0.60885823088E+01 0.63074489939E+01 0.66926480754E+01 0.72553124037E+01 0.80290982082E+01
 0.90403245678E+01 0.10274275659E+02 0.11687371966E+02 0.13222700159E+02 0.14785434217E+02
 0.16227440485E+02 0.17388570907E+02 0.18145297994E+02 0.18414445503E+02 0.18151340943E+02
 0.17381005195E+02 0.16211417378E+02 0.14786957093E+02 0.13239570771E+02 0.11691393747E+02
 0.10262271355E+02 0.90357919821E+01 0.87577524801E+01 0.79598420138E+01 0.73629585746E+01
 0.69592158873E+01 0.67199192961E+01 0.66030869711E+01 0.65929925769E+01 0.67062344407E+01
 0.69601164006E+01 0.73660122441E+01 0.79518329918E+01 0.87542499455E+01 0.97803856539E+01
 0.10999805805E+02 0.12367196703E+02 0.13816937095E+02 0.15234314867E+02 0.16467832083E+02
 0.17380599925E+02 0.17874688366E+02 0.17884139925E+02 0.17392149158E+02 0.16463854015E+02
 0.15229615828E+02 0.13826817500E+02 0.12374734841E+02 0.10988231097E+02 0.97667073279E+01
 0.93292199919E+01 0.85578732146E+01 0.79734534205E+01 0.75646925202E+01 0.73129390602E+01
 0.71796185045E+01 0.71323781473E+01 0.71712309565E+01 0.73129423124E+01 0.75705469660E+01
 0.79667235163E+01 0.85430475171E+01 0.93292207611E+01 0.10315015057E+02 0.11464179632E+02
 0.12729080506E+02 0.14028915297E+02 0.15236637935E+02 0.16215348081E+02 0.16859269268E+02
 0.17094558395E+02 0.16877500925E+02 0.16225328572E+02 0.15232205927E+02 0.14028906512E+02
 0.12735552064E+02 0.11459317131E+02 0.10301159470E+02 0.96964431947E+01 0.89903546345E+01
 0.84578807808E+01 0.80809452894E+01 0.78433873745E+01 0.77146131945E+01 0.76565097441E+01
 0.76537417122E+01 0.77165247558E+01 0.78567849679E+01 0.80882114240E+01 0.84465978229E+01
 0.89779432751E+01 0.96996617023E+01 0.10592272158E+02 0.11620942833E+02 0.12732581879E+02
 0.13831700928E+02 0.14792227101E+02 0.15503288041E+02 0.15889053648E+02 0.15898109276E+02
 0.15514436230E+02 0.14787304310E+02 0.13822392320E+02 0.12734650841E+02 0.11624356371E+02
 0.10585524704E+02 0.98231243049E+01 0.92159933550E+01 0.87690188175E+01 0.84598695284E+01
 0.82689837215E+01 0.81713103455E+01 0.81278625730E+01 0.81106909447E+01 0.81227246855E+01
 0.81783417732E+01 0.82853642469E+01 0.84638674286E+01 0.87593581083E+01 0.92124312011E+01
 0.98278873352E+01 0.10585479465E+02 0.11454645991E+02 0.12375167889E+02 0.13244326633E+02
 0.13950616668E+02 0.14412767003E+02 0.14578860385E+02 0.14418362771E+02 0.13944376897E+02
 0.13228751960E+02 0.12371606956E+02 0.11464269480E+02 0.10588834793E+02 0.96962644017E+01
 0.92124871977E+01 0.88746822355E+01 0.86610187572E+01 0.85458946124E+01 0.85075953462E+01
 0.85097995377E+01 0.85116945565E+01 0.85019316509E+01 0.84976655146E+01 0.85126699482E+01
 0.85558942245E+01 0.86590059185E+01 0.88710661984E+01 0.92196229234E+01 0.97000607520E+01
 0.10297529466E+02 0.10984643350E+02 0.11694564017E+02 0.12328764724E+02 0.12801069683E+02
 0.13057003876E+02 0.13060614775E+02 0.12800539891E+02 0.12315743975E+02 0.11686963047E+02
 0.10995812920E+02 0.10309808629E+02 0.93292259456E+01 0.89813792223E+01 0.87639923841E+01
 0.86621105551E+01 0.86425057764E+01 0.86826960654E+01 0.87552015257E+01 0.88135692307E+01
 0.88240720889E+01 0.87932891136E+01 0.87439523975E+01 0.86874351276E+01 0.86424935953E+01
 0.86548492564E+01 0.87688919089E+01 0.89960845394E+01 0.93292210395E+01 0.97610666414E+01
 0.10262183630E+02 0.10761971051E+02 0.11179216391E+02 0.11458391730E+02 0.11563578710E+02
 0.11468049175E+02 0.11179214717E+02 0.10754548162E+02 0.10268128876E+02 0.97764391169E+01
 0.87582408276E+01 0.85481639813E+01 0.84499901153E+01 0.84633646369E+01 0.85506098615E+01
 0.86796469933E+01 0.88308814242E+01 0.89668244702E+01 0.90383023892E+01 0.90276915680E+01
 0.89538555325E+01 0.88353722597E+01 0.86850552404E+01 0.85397341192E+01 0.84548990924E+01
 0.84623592684E+01 0.85623104396E+01 0.87532530086E+01 0.90313566488E+01 0.93584718329E+01
 0.96676507944E+01 0.99059190733E+01 0.10044494903E+02 0.10055348426E+02 0.99199492002E+01
 0.96649307431E+01 0.93538471603E+01 0.90403632483E+01 0.80351395753E+01 0.79557707896E+01
 0.79668543111E+01 0.80853211308E+01 0.82806030991E+01 0.85069469426E+01 0.87395252563E+01
 0.89543126633E+01 0.91045855744E+01 0.91517017513E+01 0.90977415683E+01 0.89628240455E+01
 0.87576437653E+01 0.85054783878E+01 0.82621394496E+01 0.80814190298E+01 0.79804152559E+01
 0.79598045626E+01 0.80274999739E+01 0.81736868918E+01 0.83502913557E+01 0.85053488168E+01
 0.86160077078E+01 0.86675151480E+01 0.86336295264E+01 0.85093489718E+01 0.83367008818E+01
 0.81692981692E+01 0.72204654468E+01 0.72553482230E+01 0.73620197479E+01 0.75658926512E+01
 0.78550815579E+01 0.81804647962E+01 0.85012641789E+01 0.87949482237E+01 0.90256006705E+01
 0.91467769063E+01 0.91418485318E+01 0.90268068834E+01 0.88144909597E+01 0.85147107506E+01
 0.81684888426E+01 0.78401393811E+01 0.75701066412E+01 0.73678949780E+01 0.72454595858E+01
 0.72149568692E+01 0.72534133619E+01 0.73113325567E+01 0.73601140491E+01 0.73966457025E+01
 0.74068960011E+01 0.73695453241E+01 0.72979056716E+01 0.72376920008E+01 0.63773448611E+01
 0.65000180015E+01 0.66864830199E+01 0.69556353529E+01 0.73129310102E+01 0.77220307279E+01
 0.81319090448E+01 0.85095643047E+01 0.88240930935E+01 0.90289041250E+01 0.90908944077E+01
 0.90161774626E+01 0.88240724109E+01 0.85222804361E+01 0.81322589046E+01 0.77101613172E+01
 0.73129427685E+01 0.69653024132E+01 0.66805558551E+01 0.64824574307E+01 0.63773469057E+01
 0.63320132325E+01 0.63088294486E+01 0.63003612109E+01 0.63069684977E+01 0.63112138875E+01
 0.63047987534E+01 0.63153090790E+01 0.55638927853E+01 0.57418542841E+01 0.59879515054E+01
 0.63069612066E+01 0.67085368854E+01 0.71742584948E+01 0.76571320732E+01 0.81147074253E+01
 0.85146867026E+01 0.88128360223E+01 0.89623472344E+01 0.89498219244E+01 0.87941869003E+01
 0.85125377586E+01 0.81187258962E+01 0.76525006243E+01 0.71734910828E+01 0.67222400835E+01
 0.63154834354E+01 0.59755604480E+01 0.57280277189E+01 0.55683627925E+01 0.54650589506E+01
 0.53993824220E+01 0.53731527616E+01 0.53801259491E+01 0.54055381511E+01 0.54570626477E+01
 0.48249272571E+01 0.50278072720E+01 0.53086548722E+01 0.56631722489E+01 0.60946288285E+01
 0.65948664773E+01 0.71279743600E+01 0.76490977978E+01 0.81230887559E+01 0.85111177214E+01
 0.87620373369E+01 0.88398502597E+01 0.87463814993E+01 0.85026083908E+01 0.81271499064E+01
 0.76497175323E+01 0.71235580141E+01 0.66009637284E+01 0.61094951937E+01 0.56670389565E+01
 0.52997123245E+01 0.50242714665E+01 0.48298094201E+01 0.46970493507E+01 0.46216462404E+01
 0.46031653194E+01 0.46305651839E+01 0.46989026713E+01 0.41877092088E+01 0.43934854840E+01
 0.46847092509E+01 0.50571531763E+01 0.55077715081E+01 0.60305013515E+01 0.65991001326E+01
 0.71704578612E+01 0.77046406891E+01 0.81663782440E+01 0.85111809361E+01 0.86928495014E+01
 0.86898113196E+01 0.85105539470E+01 0.81755444452E+01 0.77120544776E+01 0.71650910674E+01
 0.65908823415E+01 0.60326227356E+01 0.55146760970E+01 0.50582600653E+01 0.46840463104E+01
 0.43976746574E+01 0.41900545279E+01 0.40548962811E+01 0.39923169641E+01 0.39969676868E+01
 0.40605697000E+01 0.36645807958E+01 0.38593726602E+01 0.41433634698E+01 0.45161371179E+01
 0.49732786154E+01 0.55086323697E+01 0.61034493982E+01 0.67199441711E+01 0.73129312077E+01
 0.78418557829E+01 0.82669121988E+01 0.85450146406E+01 0.86425062606E+01 0.85497139801E+01
 0.82785178535E+01 0.78535531834E+01 0.73129391809E+01 0.67085753888E+01 0.60929939593E+01
 0.55055293793E+01 0.49732739923E+01 0.45168295046E+01 0.41474195801E+01 0.38645903374E+01
 0.36645917319E+01 0.35473113956E+01 0.35114334569E+01 0.35511317894E+01 0.32593974135E+01
 0.34331757249E+01 0.36997179137E+01 0.40609466735E+01 0.45137495311E+01 0.50519345268E+01
 0.56621872213E+01 0.63159808465E+01 0.69697773127E+01 0.75747609792E+01 0.80843362793E+01
 0.84553817114E+01 0.86517477678E+01 0.86528423271E+01 0.84588847024E+01 0.80887233655E+01
 0.75759717867E+01 0.69662016485E+01 0.63109763166E+01 0.56588113996E+01 0.50491952210E+01
 0.45108743289E+01 0.40604578602E+01 0.37025872156E+01 0.34356831326E+01 0.32588365711E+01
 0.31720659317E+01 0.31730910723E+01 0.29723693162E+01 0.31158240128E+01 0.33577416583E+01
 0.37007031018E+01 0.41436146540E+01 0.46804757836E+01 0.52995834453E+01 0.59799172722E+01
 0.66867342256E+01 0.73718731482E+01 0.79802946937E+01 0.84589588642E+01 0.87642438189E+01
 0.88674908691E+01 0.87592342363E+01 0.84510881786E+01 0.79737045216E+01 0.73709294942E+01
 0.66925238489E+01 0.59882860544E+01 0.53042436640E+01 0.46790168684E+01 0.41394329665E+01
 0.36983276964E+01 0.33578617181E+01 0.31162768867E+01 0.29722033831E+01 0.29246179197E+01
 0.28018228550E+01 0.29060215638E+01 0.31159075177E+01 0.34342444140E+01 0.38626620722E+01
 0.43976357475E+01 0.50278909151E+01 0.57339035475E+01 0.64867779668E+01 0.72454115621E+01
 0.79558543923E+01 0.85572161114E+01 0.89926443433E+01 0.92195956230E+01 0.92160769788E+01
 0.89836454359E+01 0.85474956312E+01 0.79517874056E+01 0.72504233076E+01 0.64977919680E+01
 0.57436700968E+01 0.50313843597E+01 0.43956046303E+01 0.38591764961E+01 0.34321824103E+01
 0.31154039332E+01 0.29060668056E+01 0.28018617551E+01 0.29578195201E+01 0.30217629211E+01
 0.32150656459E+01 0.35423448831E+01 0.40102814777E+01 0.46228266371E+01 0.53744449734E+01
 0.62458530930E+01 0.72036286228E+01 0.82006260016E+01 0.91752370879E+01 0.10052731459E+02
 0.10753236064E+02 0.11205705125E+02 0.11361937392E+02 0.11205328408E+02 0.10753225394E+02
 0.10053689776E+02 0.91768305918E+01 0.82017977121E+01 0.72036318647E+01 0.62449429905E+01
 0.53734843295E+01 0.46223856976E+01 0.40102917460E+01 0.35424768656E+01 0.32151430679E+01
 0.30217862078E+01 0.30216803813E+01 0.30217385228E+01 0.31699957675E+01 0.34704308266E+01
 0.39307606203E+01 0.45600397219E+01 0.53621699819E+01 0.63270666318E+01 0.74243411677E+01
 0.86025519638E+01 0.97923500409E+01 0.10910396261E+02 0.11864641631E+02 0.12564581929E+02
 0.12936806980E+02 0.12940050881E+02 0.12573140776E+02 0.11874444347E+02 0.10915220133E+02
 0.97881708893E+01 0.85917413817E+01 0.74140656268E+01 0.63228859256E+01 0.53638633754E+01
 0.45635974055E+01 0.39330250070E+01 0.34710377897E+01 0.31699439984E+01 0.32152860844E+01