   6   6   0   0
  0.2508915E+02  0.3518981E-09  0.3518981E-09  0.1403695E-08  0.5000000E-15
  1.000000000000000E-004
  CAR 
 bulk MoTe2                              
     14.56217750    -55.91941487  301      8.27756885      1.00000000
    -55.919  0.0000E+00  0.0000E+00
    -55.684  0.0000E+00  0.0000E+00
    -55.450  0.0000E+00  0.0000E+00
    -55.215  0.0000E+00  0.0000E+00
    -54.980  0.0000E+00  0.0000E+00
    -54.745  0.0000E+00  0.0000E+00
    -54.510  0.0000E+00  0.0000E+00
    -54.275  0.0000E+00  0.0000E+00
    -54.040  0.0000E+00  0.0000E+00
    -53.805  0.0000E+00  0.0000E+00
    -53.570  0.0000E+00  0.0000E+00
    -53.335  0.0000E+00  0.0000E+00
    -53.100  0.0000E+00  0.0000E+00
    -52.865  0.8174E-04  0.1920E-04
    -52.630  0.1678E+02  0.3943E+01
    -52.395  0.2413E+00  0.4000E+01
    -52.160  0.0000E+00  0.4000E+01
    -51.925  0.0000E+00  0.4000E+01
    -51.691  0.0000E+00  0.4000E+01
    -51.456  0.0000E+00  0.4000E+01
    -51.221  0.0000E+00  0.4000E+01
    -50.986  0.0000E+00  0.4000E+01
    -50.751  0.0000E+00  0.4000E+01
    -50.516  0.0000E+00  0.4000E+01
    -50.281  0.0000E+00  0.4000E+01
    -50.046  0.0000E+00  0.4000E+01
    -49.811  0.0000E+00  0.4000E+01
    -49.576  0.0000E+00  0.4000E+01
    -49.341  0.0000E+00  0.4000E+01
    -49.106  0.0000E+00  0.4000E+01
    -48.871  0.0000E+00  0.4000E+01
    -48.636  0.0000E+00  0.4000E+01
    -48.401  0.0000E+00  0.4000E+01
    -48.166  0.0000E+00  0.4000E+01
    -47.932  0.0000E+00  0.4000E+01
    -47.697  0.0000E+00  0.4000E+01
    -47.462  0.0000E+00  0.4000E+01
    -47.227  0.0000E+00  0.4000E+01
    -46.992  0.0000E+00  0.4000E+01
    -46.757  0.0000E+00  0.4000E+01
    -46.522  0.0000E+00  0.4000E+01
    -46.287  0.0000E+00  0.4000E+01
    -46.052  0.0000E+00  0.4000E+01
    -45.817  0.0000E+00  0.4000E+01
    -45.582  0.0000E+00  0.4000E+01
    -45.347  0.0000E+00  0.4000E+01
    -45.112  0.0000E+00  0.4000E+01
    -44.877  0.0000E+00  0.4000E+01
    -44.642  0.0000E+00  0.4000E+01
    -44.407  0.0000E+00  0.4000E+01
    -44.172  0.0000E+00  0.4000E+01
    -43.938  0.0000E+00  0.4000E+01
    -43.703  0.0000E+00  0.4000E+01
    -43.468  0.0000E+00  0.4000E+01
    -43.233  0.0000E+00  0.4000E+01
    -42.998  0.0000E+00  0.4000E+01
    -42.763  0.0000E+00  0.4000E+01
    -42.528  0.0000E+00  0.4000E+01
    -42.293  0.0000E+00  0.4000E+01
    -42.058  0.0000E+00  0.4000E+01
    -41.823  0.0000E+00  0.4000E+01
    -41.588  0.0000E+00  0.4000E+01
    -41.353  0.0000E+00  0.4000E+01
    -41.118  0.0000E+00  0.4000E+01
    -40.883  0.0000E+00  0.4000E+01
    -40.648  0.0000E+00  0.4000E+01
    -40.413  0.0000E+00  0.4000E+01
    -40.179  0.0000E+00  0.4000E+01
    -39.944  0.0000E+00  0.4000E+01
    -39.709  0.0000E+00  0.4000E+01
    -39.474  0.0000E+00  0.4000E+01
    -39.239  0.0000E+00  0.4000E+01
    -39.004  0.0000E+00  0.4000E+01
    -38.769  0.0000E+00  0.4000E+01
    -38.534  0.0000E+00  0.4000E+01
    -38.299  0.0000E+00  0.4000E+01
    -38.064  0.0000E+00  0.4000E+01
    -37.829  0.0000E+00  0.4000E+01
    -37.594  0.0000E+00  0.4000E+01
    -37.359  0.0000E+00  0.4000E+01
    -37.124  0.0000E+00  0.4000E+01
    -36.889  0.0000E+00  0.4000E+01
    -36.654  0.0000E+00  0.4000E+01
    -36.420  0.0000E+00  0.4000E+01
    -36.185  0.0000E+00  0.4000E+01
    -35.950  0.0000E+00  0.4000E+01
    -35.715  0.0000E+00  0.4000E+01
    -35.480  0.0000E+00  0.4000E+01
    -35.245  0.0000E+00  0.4000E+01
    -35.010  0.0000E+00  0.4000E+01
    -34.775  0.0000E+00  0.4000E+01
    -34.540  0.0000E+00  0.4000E+01
    -34.305  0.0000E+00  0.4000E+01
    -34.070  0.0000E+00  0.4000E+01
    -33.835  0.0000E+00  0.4000E+01
    -33.600  0.0000E+00  0.4000E+01
    -33.365  0.0000E+00  0.4000E+01
    -33.130  0.0000E+00  0.4000E+01
    -32.895  0.0000E+00  0.4000E+01
    -32.660  0.0000E+00  0.4000E+01
    -32.426  0.0000E+00  0.4000E+01
    -32.191  0.0000E+00  0.4000E+01
    -31.956  0.0000E+00  0.4000E+01
    -31.721  0.0000E+00  0.4000E+01
    -31.486  0.0000E+00  0.4000E+01
    -31.251  0.0000E+00  0.4000E+01
    -31.016  0.0000E+00  0.4000E+01
    -30.781  0.0000E+00  0.4000E+01
    -30.546  0.0000E+00  0.4000E+01
    -30.311  0.0000E+00  0.4000E+01
    -30.076  0.0000E+00  0.4000E+01
    -29.841  0.0000E+00  0.4000E+01
    -29.606  0.0000E+00  0.4000E+01
    -29.371  0.0000E+00  0.4000E+01
    -29.136  0.0000E+00  0.4000E+01
    -28.901  0.0000E+00  0.4000E+01
    -28.667  0.0000E+00  0.4000E+01
    -28.432  0.0000E+00  0.4000E+01
    -28.197  0.0000E+00  0.4000E+01
    -27.962  0.0000E+00  0.4000E+01
    -27.727  0.0000E+00  0.4000E+01
    -27.492  0.0000E+00  0.4000E+01
    -27.257  0.0000E+00  0.4000E+01
    -27.022  0.7191E-03  0.4000E+01
    -26.787  0.4207E+02  0.1388E+02
    -26.552  0.9004E+01  0.1600E+02
    -26.317  0.0000E+00  0.1600E+02
    -26.082  0.0000E+00  0.1600E+02
    -25.847  0.0000E+00  0.1600E+02
    -25.612  0.0000E+00  0.1600E+02
    -25.377  0.0000E+00  0.1600E+02
    -25.142  0.0000E+00  0.1600E+02
    -24.908  0.0000E+00  0.1600E+02
    -24.673  0.0000E+00  0.1600E+02
    -24.438  0.0000E+00  0.1600E+02
    -24.203  0.0000E+00  0.1600E+02
    -23.968  0.0000E+00  0.1600E+02
    -23.733  0.0000E+00  0.1600E+02
    -23.498  0.0000E+00  0.1600E+02
    -23.263  0.0000E+00  0.1600E+02
    -23.028  0.0000E+00  0.1600E+02
    -22.793  0.0000E+00  0.1600E+02
    -22.558  0.0000E+00  0.1600E+02
    -22.323  0.0000E+00  0.1600E+02
    -22.088  0.0000E+00  0.1600E+02
    -21.853  0.0000E+00  0.1600E+02
    -21.618  0.0000E+00  0.1600E+02
    -21.383  0.0000E+00  0.1600E+02
    -21.148  0.0000E+00  0.1600E+02
    -20.914  0.0000E+00  0.1600E+02
    -20.679  0.0000E+00  0.1600E+02
    -20.444  0.0000E+00  0.1600E+02
    -20.209  0.0000E+00  0.1600E+02
    -19.974  0.0000E+00  0.1600E+02
    -19.739  0.0000E+00  0.1600E+02
    -19.504  0.0000E+00  0.1600E+02
    -19.269  0.0000E+00  0.1600E+02
    -19.034  0.0000E+00  0.1600E+02
    -18.799  0.0000E+00  0.1600E+02
    -18.564  0.0000E+00  0.1600E+02
    -18.329  0.0000E+00  0.1600E+02
    -18.094  0.0000E+00  0.1600E+02
    -17.859  0.0000E+00  0.1600E+02
    -17.624  0.0000E+00  0.1600E+02
    -17.389  0.0000E+00  0.1600E+02
    -17.155  0.0000E+00  0.1600E+02
    -16.920  0.0000E+00  0.1600E+02
    -16.685  0.0000E+00  0.1600E+02
    -16.450  0.0000E+00  0.1600E+02
    -16.215  0.0000E+00  0.1600E+02
    -15.980  0.0000E+00  0.1600E+02
    -15.745  0.0000E+00  0.1600E+02
    -15.510  0.0000E+00  0.1600E+02
    -15.275  0.0000E+00  0.1600E+02
    -15.040  0.0000E+00  0.1600E+02
    -14.805  0.0000E+00  0.1600E+02
    -14.570  0.0000E+00  0.1600E+02
    -14.335  0.0000E+00  0.1600E+02
    -14.100  0.0000E+00  0.1600E+02
    -13.865  0.0000E+00  0.1600E+02
    -13.630  0.0000E+00  0.1600E+02
    -13.396  0.0000E+00  0.1600E+02
    -13.161  0.0000E+00  0.1600E+02
    -12.926  0.0000E+00  0.1600E+02
    -12.691  0.0000E+00  0.1600E+02
    -12.456  0.0000E+00  0.1600E+02
    -12.221  0.0000E+00  0.1600E+02
    -11.986  0.0000E+00  0.1600E+02
    -11.751  0.0000E+00  0.1600E+02
    -11.516  0.0000E+00  0.1600E+02
    -11.281  0.0000E+00  0.1600E+02
    -11.046  0.0000E+00  0.1600E+02
    -10.811  0.0000E+00  0.1600E+02
    -10.576  0.0000E+00  0.1600E+02
    -10.341  0.0000E+00  0.1600E+02
    -10.106  0.0000E+00  0.1600E+02
     -9.871  0.0000E+00  0.1600E+02
     -9.637  0.0000E+00  0.1600E+02
     -9.402  0.0000E+00  0.1600E+02
     -9.167  0.0000E+00  0.1600E+02
     -8.932  0.0000E+00  0.1600E+02
     -8.697  0.0000E+00  0.1600E+02
     -8.462  0.0000E+00  0.1600E+02
     -8.227  0.0000E+00  0.1600E+02
     -7.992  0.0000E+00  0.1600E+02
     -7.757  0.0000E+00  0.1600E+02
     -7.522  0.0000E+00  0.1600E+02
     -7.287  0.0000E+00  0.1600E+02
     -7.052  0.0000E+00  0.1600E+02
     -6.817  0.0000E+00  0.1600E+02
     -6.582  0.0000E+00  0.1600E+02
     -6.347  0.0000E+00  0.1600E+02
     -6.112  0.0000E+00  0.1600E+02
     -5.877  0.0000E+00  0.1600E+02
     -5.643  0.0000E+00  0.1600E+02
     -5.408  0.0000E+00  0.1600E+02
     -5.173  0.3376E-13  0.1600E+02
     -4.938  0.3394E-01  0.1601E+02
     -4.703  0.3200E+00  0.1608E+02
     -4.468  0.9086E+00  0.1630E+02
     -4.233  0.1602E+01  0.1667E+02
     -3.998  0.5627E+00  0.1681E+02
     -3.763  0.1764E+01  0.1722E+02
     -3.528  0.3142E+01  0.1796E+02
     -3.293  0.3648E+01  0.1882E+02
     -3.058  0.2003E+01  0.1929E+02
     -2.823  0.4739E+01  0.2040E+02
     -2.588  0.6611E+01  0.2195E+02
     -2.353  0.7061E+01  0.2361E+02
     -2.118  0.1648E+01  0.2400E+02
     -1.884  0.5183E-02  0.2400E+02
     -1.649  0.0000E+00  0.2400E+02
     -1.414  0.0000E+00  0.2400E+02
     -1.179  0.0000E+00  0.2400E+02
     -0.944  0.0000E+00  0.2400E+02
     -0.709  0.0000E+00  0.2400E+02
     -0.474  0.0000E+00  0.2400E+02
     -0.239  0.0000E+00  0.2400E+02
     -0.004  0.0000E+00  0.2400E+02
      0.231  0.0000E+00  0.2400E+02
      0.466  0.0000E+00  0.2400E+02
      0.701  0.0000E+00  0.2400E+02
      0.936  0.0000E+00  0.2400E+02
      1.171  0.0000E+00  0.2400E+02
      1.406  0.0000E+00  0.2400E+02
      1.641  0.0000E+00  0.2400E+02
      1.875  0.0000E+00  0.2400E+02
      2.110  0.3927E-04  0.2400E+02
      2.345  0.4786E+00  0.2411E+02
      2.580  0.9655E+00  0.2434E+02
      2.815  0.1130E+01  0.2460E+02
      3.050  0.4435E+01  0.2565E+02
      3.285  0.5274E+01  0.2689E+02
      3.520  0.5728E+01  0.2823E+02
      3.755  0.5636E+01  0.2956E+02
      3.990  0.3061E+01  0.3027E+02
      4.225  0.2373E+01  0.3083E+02
      4.460  0.2971E+01  0.3153E+02
      4.695  0.7635E+01  0.3332E+02
      4.930  0.3577E+01  0.3416E+02
      5.165  0.4875E+01  0.3531E+02
      5.400  0.5418E+01  0.3658E+02
      5.635  0.5532E+01  0.3788E+02
      5.869  0.6227E+01  0.3935E+02
      6.104  0.6315E+01  0.4083E+02
      6.339  0.5836E+01  0.4220E+02
      6.574  0.7504E+01  0.4396E+02
      6.809  0.6492E+01  0.4549E+02
      7.044  0.6467E+01  0.4701E+02
      7.279  0.5483E+01  0.4830E+02
      7.514  0.5062E+01  0.4949E+02
      7.749  0.8180E+01  0.5141E+02
      7.984  0.2086E+01  0.5190E+02
      8.219  0.4367E+00  0.5200E+02
      8.454  0.4795E-06  0.5200E+02
      8.689  0.1114E-08  0.5200E+02
      8.924  0.5424E+00  0.5213E+02
      9.159  0.2618E+01  0.5274E+02
      9.394  0.5170E+01  0.5396E+02
      9.628  0.5578E+01  0.5527E+02
      9.863  0.1293E+02  0.5831E+02
     10.098  0.4645E+01  0.5940E+02
     10.333  0.5054E+01  0.6058E+02
     10.568  0.2874E+01  0.6126E+02
     10.803  0.1042E+01  0.6150E+02
     11.038  0.1099E+01  0.6176E+02
     11.273  0.8902E+00  0.6197E+02
     11.508  0.1206E+00  0.6200E+02
     11.743  0.1390E-05  0.6200E+02
     11.978  0.0000E+00  0.6200E+02
     12.213  0.0000E+00  0.6200E+02
     12.448  0.0000E+00  0.6200E+02
     12.683  0.0000E+00  0.6200E+02
     12.918  0.0000E+00  0.6200E+02
     13.153  0.0000E+00  0.6200E+02
     13.387  0.0000E+00  0.6200E+02
     13.622  0.0000E+00  0.6200E+02
     13.857  0.0000E+00  0.6200E+02
     14.092  0.0000E+00  0.6200E+02
     14.327  0.0000E+00  0.6200E+02
     14.562  0.0000E+00  0.6200E+02
