    6    6    1    1
  0.2508915E+02  0.3518981E-09  0.3518981E-09  0.1403695E-08  0.5000000E-15
  1.000000000000000E-004
  CAR 
 bulk MoTe2                              
     52     14     31
 
  0.0000000E+00  0.0000000E+00  0.0000000E+00  0.1388889E-01
      1        -52.715706   1.000000
      2        -52.715643   1.000000
      3        -26.898553   1.000000
      4        -26.893876   1.000000
      5        -26.767325   1.000000
      6        -26.766907   1.000000
      7        -26.763600   1.000000
      8        -26.763189   1.000000
      9         -4.917854   1.000000
     10         -4.599246   1.000000
     11         -4.081806   1.000000
     12         -3.587240   1.000000
     13          2.230842   1.000000
     14          3.518432   1.000000
     15          4.966797   1.000000
     16          6.301625   1.000000
     17          6.301760   1.000000
     18          6.316133   1.000000
     19          6.316272   1.000000
     20          7.023078   1.000000
     21          7.068776   1.000000
     22          7.068788   1.000000
     23          7.102371   1.000000
     24          7.102384   1.000000
     25          7.723863   1.000000
     26          8.061071   1.000000
     27         10.989061   0.000000
     28         10.989082   0.000000
     29         11.119294   0.000000
     30         11.121688   0.000000
     31         11.205187   0.000000
 
  0.1666667E+00  0.0000000E+00  0.0000000E+00  0.8333333E-01
      1        -52.713197   1.000000
      2        -52.713102   1.000000
      3        -26.889449   1.000000
      4        -26.887571   1.000000
      5        -26.798091   1.000000
      6        -26.797777   1.000000
      7        -26.771695   1.000000
      8        -26.769291   1.000000
      9         -4.532957   1.000000
     10         -4.221361   1.000000
     11         -3.795444   1.000000
     12         -3.337456   1.000000
     13          2.649395   1.000000
     14          3.904287   1.000000
     15          4.775158   1.000000
     16          5.468841   1.000000
     17          5.546244   1.000000
     18          6.014594   1.000000
     19          6.596552   1.000000
     20          6.608803   1.000000
     21          6.637070   1.000000
     22          6.666960   1.000000
     23          6.872366   1.000000
     24          7.090948   1.000000
     25          7.635257   1.000000
     26          7.788662   1.000000
     27          9.871287   0.000000
     28         10.146435   0.000000
     29         10.159398   0.000000
     30         10.406469   0.000000
     31         10.468266   0.000000
 
  0.3333333E+00  0.0000000E+00  0.0000000E+00  0.8333333E-01
      1        -52.708196   1.000000
      2        -52.708083   1.000000
      3        -26.874153   1.000000
      4        -26.872517   1.000000
      5        -26.862048   1.000000
      6        -26.860287   1.000000
      7        -26.787884   1.000000
      8        -26.787325   1.000000
      9         -3.540055   1.000000
     10         -3.277086   1.000000
     11         -3.063703   1.000000
     12         -2.733000   1.000000
     13          3.202775   1.000000
     14          3.595175   1.000000
     15          3.959609   1.000000
     16          4.018541   1.000000
     17          4.263555   1.000000
     18          4.826379   1.000000
     19          5.891552   1.000000
     20          5.980399   1.000000
     21          6.103596   1.000000
     22          6.766958   1.000000
     23          6.808307   1.000000
     24          7.028708   1.000000
     25          7.222878   1.000000
     26          7.367576   1.000000
     27          9.196012   0.000000
     28          9.587059   0.000000
     29          9.783101   0.000000
     30          9.816391   0.000000
     31         10.240801   0.000000
 
  0.5000000E+00 -0.2775558E-16  0.0000000E+00  0.4166667E-01
      1        -52.705524   1.000000
      2        -52.705407   1.000000
      3        -26.892210   1.000000
      4        -26.890459   1.000000
      5        -26.867426   1.000000
      6        -26.865689   1.000000
      7        -26.793918   1.000000
      8        -26.793272   1.000000
      9         -2.786732   1.000000
     10         -2.646362   1.000000
     11         -2.519720   1.000000
     12         -2.379506   1.000000
     13          2.280458   1.000000
     14          2.563024   1.000000
     15          3.176662   1.000000
     16          3.279830   1.000000
     17          4.204339   1.000000
     18          4.901377   1.000000
     19          5.593625   1.000000
     20          5.693227   1.000000
     21          6.114078   1.000000
     22          6.272466   1.000000
     23          7.092113   1.000000
     24          7.138643   1.000000
     25          7.513403   1.000000
     26          7.799700   1.000000
     27          9.370284   0.000000
     28          9.426821   0.000000
     29          9.543364   0.000000
     30          9.882674   0.000000
     31         10.673966   0.000000
 
  0.1666667E+00  0.1666667E+00  0.0000000E+00  0.8333333E-01
      1        -52.709430   1.000000
      2        -52.709407   1.000000
      3        -26.878197   1.000000
      4        -26.878134   1.000000
      5        -26.838350   1.000000
      6        -26.838280   1.000000
      7        -26.790758   1.000000
      8        -26.790639   1.000000
      9         -3.835585   1.000000
     10         -3.550801   1.000000
     11         -3.278395   1.000000
     12         -2.900518   1.000000
     13          3.269336   1.000000
     14          4.137679   1.000000
     15          4.484789   1.000000
     16          4.573541   1.000000
     17          4.739733   1.000000
     18          5.018807   1.000000
     19          5.238286   1.000000
     20          5.706795   1.000000
     21          6.416476   1.000000
     22          6.442707   1.000000
     23          6.987499   1.000000
     24          7.258304   1.000000
     25          7.278248   1.000000
     26          7.432864   1.000000
     27          8.898158   0.000000
     28          9.639810   0.000000
     29          9.662570   0.000000
     30          9.687191   0.000000
     31         10.032910   0.000000
 
  0.3333333E+00  0.1666667E+00  0.0000000E+00  0.1666667E+00
      1        -52.705537   1.000000
      2        -52.705470   1.000000
      3        -26.876227   1.000000
      4        -26.875402   1.000000
      5        -26.867597   1.000000
      6        -26.866057   1.000000
      7        -26.810937   1.000000
      8        -26.808942   1.000000
      9         -2.851823   1.000000
     10         -2.678453   1.000000
     11         -2.558881   1.000000
     12         -2.366420   1.000000
     13          2.868710   1.000000
     14          3.083939   1.000000
     15          3.519642   1.000000
     16          3.571535   1.000000
     17          4.353432   1.000000
     18          4.949930   1.000000
     19          4.954840   1.000000
     20          5.315160   1.000000
     21          5.653245   1.000000
     22          5.948512   1.000000
     23          6.306200   1.000000
     24          6.559201   1.000000
     25          7.529294   1.000000
     26          7.714493   1.000000
     27          9.124888   0.000000
     28          9.593280   0.000000
     29          9.682845   0.000000
     30          9.832562   0.000000
     31          9.978980   0.000000
 
  0.3333333E+00  0.3333333E+00  0.0000000E+00  0.2777778E-01
      1        -52.704302   1.000000
      2        -52.704301   1.000000
      3        -26.863797   1.000000
      4        -26.863797   1.000000
      5        -26.861695   1.000000
      6        -26.861692   1.000000
      7        -26.845962   1.000000
      8        -26.844814   1.000000
      9         -2.400583   1.000000
     10         -2.400583   1.000000
     11         -2.208327   1.000000
     12         -2.208327   1.000000
     13          3.235304   1.000000
     14          3.428674   1.000000
     15          3.428684   1.000000
     16          3.474768   1.000000
     17          3.898771   1.000000
     18          4.224017   1.000000
     19          4.737976   1.000000
     20          4.737977   1.000000
     21          4.998188   1.000000
     22          4.998206   1.000000
     23          6.252461   1.000000
     24          6.252461   1.000000
     25          7.794566   1.000000
     26          8.031994   1.000000
     27          9.078804   0.000000
     28          9.078830   0.000000
     29          9.234447   0.000000
     30         10.224210   0.000000
     31         10.386774   0.000000
 
  0.0000000E+00 -0.8271806E-24  0.5000000E+00  0.1388889E-01
      1        -52.715468   1.000000
      2        -52.715468   1.000000
      3        -26.893742   1.000000
      4        -26.893742   1.000000
      5        -26.763723   1.000000
      6        -26.763723   1.000000
      7        -26.763310   1.000000
      8        -26.763310   1.000000
      9         -4.796233   1.000000
     10         -4.796232   1.000000
     11         -3.800001   1.000000
     12         -3.800001   1.000000
     13          2.723880   1.000000
     14          2.723880   1.000000
     15          6.042797   1.000000
     16          6.042797   1.000000
     17          6.309098   1.000000
     18          6.309098   1.000000
     19          6.309235   1.000000
     20          6.309235   1.000000
     21          7.086670   1.000000
     22          7.086670   1.000000
     23          7.086683   1.000000
     24          7.086683   1.000000
     25          7.977970   1.000000
     26          7.977970   1.000000
     27         11.025894   0.000000
     28         11.025895   0.000000
     29         11.025909   0.000000
     30         11.025910   0.000000
     31         11.358469   0.000000
 
  0.1666667E+00  0.2211152E-16  0.5000000E+00  0.8333333E-01
      1        -52.713128   1.000000
      2        -52.713128   1.000000
      3        -26.887592   1.000000
      4        -26.887592   1.000000
      5        -26.796481   1.000000
      6        -26.796481   1.000000
      7        -26.772381   1.000000
      8        -26.772381   1.000000
      9         -4.416436   1.000000
     10         -4.416435   1.000000
     11         -3.529381   1.000000
     12         -3.529381   1.000000
     13          3.103892   1.000000
     14          3.103893   1.000000
     15          5.462595   1.000000
     16          5.462598   1.000000
     17          5.671142   1.000000
     18          5.671150   1.000000
     19          6.600710   1.000000
     20          6.600714   1.000000
     21          6.653289   1.000000
     22          6.653294   1.000000
     23          6.926484   1.000000
     24          6.926494   1.000000
     25          7.679381   1.000000
     26          7.679384   1.000000
     27         10.028599   0.000000
     28         10.028607   0.000000
     29         10.284807   0.000000
     30         10.284814   0.000000
     31         10.594737   0.000000
 
  0.3333333E+00  0.2211152E-16  0.5000000E+00  0.8333333E-01
      1        -52.708102   1.000000
      2        -52.708102   1.000000
      3        -26.874364   1.000000
      4        -26.874364   1.000000
      5        -26.859747   1.000000
      6        -26.859747   1.000000
      7        -26.786702   1.000000
      8        -26.786702   1.000000
      9         -3.447165   1.000000
     10         -3.447164   1.000000
     11         -2.860221   1.000000
     12         -2.860220   1.000000
     13          3.391633   1.000000
     14          3.391635   1.000000
     15          3.910420   1.000000
     16          3.910423   1.000000
     17          4.631366   1.000000
     18          4.631372   1.000000
     19          5.933563   1.000000
     20          5.933563   1.000000
     21          6.347545   1.000000
     22          6.347549   1.000000
     23          6.990458   1.000000
     24          6.990460   1.000000
     25          7.297937   1.000000
     26          7.297937   1.000000
     27          9.451238   0.000000
     28          9.451248   0.000000
     29          9.686405   0.000000
     30          9.686405   0.000000
     31         10.833788   0.000000
 
  0.5000000E+00 -0.6115521E-16  0.5000000E+00  0.4166667E-01
      1        -52.705535   1.000000
      2        -52.705535   1.000000
      3        -26.891849   1.000000
      4        -26.891849   1.000000
      5        -26.866720   1.000000
      6        -26.866720   1.000000
      7        -26.793847   1.000000
      8        -26.793846   1.000000
      9         -2.734082   1.000000
     10         -2.734082   1.000000
     11         -2.432081   1.000000
     12         -2.432080   1.000000
     13          2.414817   1.000000
     14          2.414817   1.000000
     15          3.196330   1.000000
     16          3.196332   1.000000
     17          4.596436   1.000000
     18          4.596438   1.000000
     19          5.641336   1.000000
     20          5.641336   1.000000
     21          6.160114   1.000000
     22          6.160119   1.000000
     23          7.131552   1.000000
     24          7.131553   1.000000
     25          7.655213   1.000000
     26          7.655213   1.000000
     27          9.394051   0.000000
     28          9.394051   0.000000
     29          9.728884   0.000000
     30          9.728888   0.000000
     31         11.111327   0.000000
 
  0.1666667E+00  0.1666667E+00  0.5000000E+00  0.8333333E-01
      1        -52.709327   1.000000
      2        -52.709327   1.000000
      3        -26.876800   1.000000
      4        -26.876800   1.000000
      5        -26.837396   1.000000
      6        -26.837396   1.000000
      7        -26.788668   1.000000
      8        -26.788666   1.000000
      9         -3.733367   1.000000
     10         -3.733366   1.000000
     11         -3.050152   1.000000
     12         -3.050151   1.000000
     13          3.602113   1.000000
     14          3.602118   1.000000
     15          4.476755   1.000000
     16          4.476756   1.000000
     17          5.036239   1.000000
     18          5.036240   1.000000
     19          5.512999   1.000000
     20          5.513007   1.000000
     21          6.431868   1.000000
     22          6.431872   1.000000
     23          7.012805   1.000000
     24          7.012807   1.000000
     25          7.384595   1.000000
     26          7.384597   1.000000
     27          9.192706   0.000000
     28          9.192727   0.000000
     29          9.799933   0.000000
     30          9.799933   0.000000
     31         10.212157   0.000000
 
  0.3333333E+00  0.1666667E+00  0.5000000E+00  0.1666667E+00
      1        -52.705543   1.000000
      2        -52.705543   1.000000
      3        -26.876101   1.000000
      4        -26.876100   1.000000
      5        -26.867515   1.000000
      6        -26.867514   1.000000
      7        -26.810560   1.000000
      8        -26.810559   1.000000
      9         -2.790430   1.000000
     10         -2.790430   1.000000
     11         -2.437394   1.000000
     12         -2.437393   1.000000
     13          2.978915   1.000000
     14          2.978916   1.000000
     15          3.520000   1.000000
     16          3.520003   1.000000
     17          4.560781   1.000000
     18          4.560792   1.000000
     19          5.267155   1.000000
     20          5.267167   1.000000
     21          5.839305   1.000000
     22          5.839309   1.000000
     23          6.350733   1.000000
     24          6.350737   1.000000
     25          7.621329   1.000000
     26          7.621333   1.000000
     27          9.369096   0.000000
     28          9.369109   0.000000
     29          9.711012   0.000000
     30          9.711015   0.000000
     31         10.334429   0.000000
 
  0.3333333E+00  0.3333333E+00  0.5000000E+00  0.2777778E-01
      1        -52.704338   1.000000
      2        -52.704338   1.000000
      3        -26.863927   1.000000
      4        -26.863924   1.000000
      5        -26.862111   1.000000
      6        -26.862108   1.000000
      7        -26.846562   1.000000
      8        -26.846562   1.000000
      9         -2.400482   1.000000
     10         -2.400481   1.000000
     11         -2.208495   1.000000
     12         -2.208494   1.000000
     13          3.329465   1.000000
     14          3.329467   1.000000
     15          3.454827   1.000000
     16          3.454827   1.000000
     17          4.086294   1.000000
     18          4.086296   1.000000
     19          4.488927   1.000000
     20          4.488934   1.000000
     21          5.359768   1.000000
     22          5.359774   1.000000
     23          6.095504   1.000000
     24          6.095507   1.000000
     25          7.888920   1.000000
     26          7.888926   1.000000
     27          9.086652   0.000000
     28          9.086654   0.000000
     29          9.690465   0.000000
     30          9.690473   0.000000
     31         10.458659   0.000000
