       N       E                     dE             d eps       ncg     rms          rms(c)
DAV:   1     0.242060400754E+03    0.24206E+03   -0.19461E+04  1124   0.829E+02
DAV:   2    -0.237414311892E+02   -0.26580E+03   -0.25921E+03  1174   0.250E+02
DAV:   3    -0.369014490779E+02   -0.13160E+02   -0.13058E+02  1073   0.478E+01
DAV:   4    -0.372386294225E+02   -0.33718E+00   -0.33643E+00  1133   0.738E+00
DAV:   5    -0.372475029382E+02   -0.88735E-02   -0.88711E-02  1085   0.116E+00    0.213E+01
DAV:   6    -0.364714379907E+02    0.77606E+00   -0.95994E+00  1003   0.146E+01    0.909E+00
DAV:   7    -0.363993870597E+02    0.72051E-01   -0.93288E+00   980   0.118E+01    0.637E+00
DAV:   8    -0.359660800126E+02    0.43331E+00   -0.19126E+00  1059   0.594E+00    0.314E+00
DAV:   9    -0.359651810281E+02    0.89898E-03   -0.25983E-01  1157   0.226E+00    0.113E+00
DAV:  10    -0.359594252317E+02    0.57558E-02   -0.43625E-02  1032   0.101E+00    0.367E-01
DAV:  11    -0.359597528219E+02   -0.32759E-03   -0.20037E-03  1036   0.225E-01    0.227E-01
DAV:  12    -0.359596491170E+02    0.10370E-03   -0.25001E-04   988   0.838E-02    0.151E-01
DAV:  13    -0.359596269153E+02    0.22202E-04   -0.12392E-04  1108   0.549E-02    0.630E-02
DAV:  14    -0.359596284604E+02   -0.15451E-05   -0.47147E-06   907   0.900E-03    0.529E-02
DAV:  15    -0.359596269736E+02    0.14868E-05   -0.28016E-06   846   0.883E-03    0.203E-02
DAV:  16    -0.359596262828E+02    0.69075E-06   -0.23699E-06   723   0.636E-03
   1 F= -.37942366E+02 E0= -.37942366E+02  d E =-.284889E-11
