 vasp.6.5.1 10Mar25 (build Jul 04 2025 14:44:13) complex                        
  
 executed on             LinuxIFC date 2025.09.30  16:54:53
 running   28 mpi-ranks, with    1 threads/rank, on    1 nodes
 distrk:  each k-point on    2 cores,   14 groups
 distr:  one band on NCORE=   2 cores,    1 groups


--------------------------------------------------------------------------------------------------------


 INCAR:
   EDIFF = 1e-06
   SYSTEM = bulk MoTe2
   ISMEAR = 0
   SIGMA = 0.05
   IVDW = 11
   LMAXMIX = 4
   LASPH = .TRUE.
   NCORE = 8
   KPAR = 14

 POTCAR:    PAW_PBE Mo_sv 02Feb2006               
 POTCAR:    PAW_PBE Te 08Apr2002                  
 POTCAR:    PAW_PBE Mo_sv 02Feb2006               
   VRHFIN =Mo: 4p5s4d                                                                               
   LEXCH  = PE                                                                                      
   EATOM  =  1862.2866 eV,  136.8742 Ry                                                             
                                                                                                    
   TITEL  = PAW_PBE Mo_sv 02Feb2006                                                                 
   LULTRA =        F    use ultrasoft PP ?                                                          
   IUNSCR =        1    unscreen: 0-lin 1-nonlin 2-no                                               
   RPACOR =    2.200    partial core radius                                                         
   POMASS =   95.940; ZVAL   =   14.000    mass and valenz                                          
   RCORE  =    2.500    outmost cutoff radius                                                       
   RWIGS  =    2.750; RWIGS  =    1.455    wigner-seitz radius (au A)                               
   ENMAX  =  242.676; ENMIN  =  182.007 eV                                                          
   ICORE  =        3    local potential                                                             
   LCOR   =        T    correct aug charges                                                         
   LPAW   =        T    paw PP                                                                      
   EAUG   =  446.014                                                                                
   DEXC   =    0.000                                                                                
   RMAX   =    2.563    core radius for proj-oper                                                   
   RAUG   =    1.300    factor for augmentation sphere                                              
   RDEP   =    2.641    radius for radial grids                                                     
   RDEPT  =    2.031    core radius for aug-charge                                                  
                                                                                                    
   Atomic configuration                                                                             
   11 entries                                                                                       
     n  l   j            E        occ.                                                              
     1  0  0.50    -19819.0341   2.0000                                                             
     2  0  0.50     -2799.0127   2.0000                                                             
     2  1  1.50     -2502.0276   6.0000                                                             
     3  0  0.50      -476.4449   2.0000                                                             
     3  1  1.50      -379.1496   6.0000                                                             
     3  2  2.50      -220.9367  10.0000                                                             
     4  0  0.50       -64.3378   2.0000                                                             
     5  0  0.50        -4.0862   1.0000                                                             
     4  1  1.50       -38.4773   6.0000                                                             
     4  2  2.50        -3.7535   5.0000                                                             
     4  3  2.50        -1.3606   0.0000                                                             
   Description                                                                                      
     l       E           TYP  RCUT    TYP  RCUT                                                     
     0    -64.3377829     23  2.100                                                                 
     0     -4.0861640     23  2.400                                                                 
     1    -38.4772993     23  2.100                                                                 
     1     13.6058260     23  2.100                                                                 
     2     -3.7534941     23  2.400                                                                 
     2     -5.1140767     23  2.400                                                                 
     3     -4.0817478     23  2.500                                                                 
  local pseudopotential read in
  partial core-charges read in
  partial kinetic energy density read in
  atomic valenz-charges read in
  non local Contribution for L=           0  read in
    real space projection operators read in
  non local Contribution for L=           0  read in
    real space projection operators read in
  non local Contribution for L=           1  read in
    real space projection operators read in
  non local Contribution for L=           1  read in
    real space projection operators read in
  non local Contribution for L=           2  read in
    real space projection operators read in
  non local Contribution for L=           2  read in
    real space projection operators read in
    PAW grid and wavefunctions read in
 
   number of l-projection  operators is LMAX  =           6
   number of lm-projection operators is LMMAX =          18
 
 POTCAR:    PAW_PBE Te 08Apr2002                  
   VRHFIN =Te: s2p4                                                                                 
   LEXCH  = PE                                                                                      
   EATOM  =   223.2721 eV,   16.4100 Ry                                                             
                                                                                                    
   TITEL  = PAW_PBE Te 08Apr2002                                                                    
   LULTRA =        F    use ultrasoft PP ?                                                          
   IUNSCR =        1    unscreen: 0-lin 1-nonlin 2-no                                               
   RPACOR =    2.200    partial core radius                                                         
   POMASS =  127.600; ZVAL   =    6.000    mass and valenz                                          
   RCORE  =    2.300    outmost cutoff radius                                                       
   RWIGS  =    2.900; RWIGS  =    1.535    wigner-seitz radius (au A)                               
   ENMAX  =  174.982; ENMIN  =  131.236 eV                                                          
   ICORE  =        3    local potential                                                             
   LCOR   =        T    correct aug charges                                                         
   LPAW   =        T    paw PP                                                                      
   EAUG   =  368.792                                                                                
   DEXC   =    0.000                                                                                
   RMAX   =    2.345    core radius for proj-oper                                                   
   RAUG   =    1.300    factor for augmentation sphere                                              
   RDEP   =    2.397    radius for radial grids                                                     
   RDEPT  =    2.174    core radius for aug-charge                                                  
                                                                                                    
   Atomic configuration                                                                             
   13 entries                                                                                       
     n  l   j            E        occ.                                                              
     1  0  0.50    -31621.2075   2.0000                                                             
     2  0  0.50     -4848.7941   2.0000                                                             
     2  1  1.50     -4352.1960   6.0000                                                             
     3  0  0.50      -964.9612   2.0000                                                             
     3  1  1.50      -803.6179   6.0000                                                             
     3  2  2.50      -559.8710  10.0000                                                             
     4  0  0.50      -164.3522   2.0000                                                             
     4  1  1.50      -114.3756   6.0000                                                             
     4  2  2.50       -41.6483  10.0000                                                             
     5  0  0.50       -15.1072   2.0000                                                             
     5  1  0.50        -5.9526   4.0000                                                             
     5  2  1.50        -5.4423   0.0000                                                             
     4  3  2.50        -5.4423   0.0000                                                             
   Description                                                                                      
     l       E           TYP  RCUT    TYP  RCUT                                                     
     0    -15.1072389     23  2.300                                                                 
     0    -16.4678215     23  2.300                                                                 
     1     -5.9526306     23  2.300                                                                 
     1     -2.4873968     23  2.300                                                                 
     2     -5.4423304     23  2.300                                                                 
     3     -1.3605826     23  2.300                                                                 
  local pseudopotential read in
  partial core-charges read in
  partial kinetic energy density read in
  atomic valenz-charges read in
  non local Contribution for L=           0  read in
    real space projection operators read in
  non local Contribution for L=           0  read in
    real space projection operators read in
  non local Contribution for L=           1  read in
    real space projection operators read in
  non local Contribution for L=           1  read in
    real space projection operators read in
  non local Contribution for L=           2  read in
    real space projection operators read in
    PAW grid and wavefunctions read in
 
   number of l-projection  operators is LMAX  =           5
   number of lm-projection operators is LMMAX =          13
 
  PAW_PBE Mo_sv 02Feb2006               :
 energy of atom  1       EATOM=-1862.2866
 kinetic energy error for atom=    0.1354 (will be added to EATOM!!)
  PAW_PBE Te 08Apr2002                  :
 energy of atom  2       EATOM= -223.2721
 kinetic energy error for atom=    0.0034 (will be added to EATOM!!)
 
 
 POSCAR: Mo Te2
  positions in direct lattice
  velocities in cartesian coordinates
 IVDW         = 11
 VDW_S6       =    1.0000
 VDW_S8       =    0.7220
 VDW_SR       =    1.2170
 VDW_RADIUS   =   50.2022 A
 VDW_CNRADIUS =   21.1671 A


 exchange-correlation table for PE
   RHO(1)=    0.500       N(1)  =     2000
   RHO(2)=  100.500       N(2)  =     4000
 


--------------------------------------------------------------------------------------------------------


 ion  position               nearest neighbor table
   1  0.333  0.667  0.250-   4 2.72   5 2.72   5 2.72   4 2.72   4 2.72   5 2.72
   2  0.667  0.333  0.750-   3 2.72   6 2.72   6 2.72   3 2.72   3 2.72   6 2.72
   3  0.333  0.667  0.621-   2 2.72   2 2.72   2 2.72   6 3.63
   4  0.667  0.333  0.379-   1 2.72   1 2.72   1 2.72   5 3.63
   5  0.667  0.333  0.121-   1 2.72   1 2.72   1 2.72   4 3.63
   6  0.333  0.667  0.879-   2 2.72   2 2.72   2 2.72   3 3.63
 
  LATTYP: Found a hexagonal cell.
 ALAT       =     3.5189812207
 C/A-ratio  =     3.9889231821
  
  Lattice vectors:
  
 A1 = (   3.5189812207,   0.0000000668,   0.0000002911)
 A2 = (  -1.7594905620,   3.0475271595,   0.0000001437)
 A3 = (   0.0000000000,   0.0000000000,  14.0369457690)


Analysis of symmetry for initial positions (statically):
=====================================================================
 Subroutine PRICEL returns:
 Original cell was already a primitive cell.
 

 Routine SETGRP: Setting up the symmetry group for a 
 hexagonal supercell.


 Subroutine GETGRP returns: Found 24 space group operations
 (whereof 12 operations were pure point group operations)
 out of a pool of 24 trial point group operations.


The static configuration has the point symmetry D_3d.
 The point group associated with its full space group is D_6h.


Analysis of symmetry for dynamics (positions and initial velocities):
=====================================================================
 Subroutine PRICEL returns:
 Original cell was already a primitive cell.
 

 Routine SETGRP: Setting up the symmetry group for a 
 hexagonal supercell.


 Subroutine GETGRP returns: Found 24 space group operations
 (whereof 12 operations were pure point group operations)
 out of a pool of 24 trial point group operations.


The dynamic configuration has the point symmetry D_3d.
 The point group associated with its full space group is D_6h.


 Subroutine INISYM returns: Found 24 space group operations
 (whereof 12 operations are pure point group operations),
 and found     1 'primitive' translations


----------------------------------------------------------------------------------------

                                     Primitive cell                                     

  volume of cell :     150.5349

  direct lattice vectors                    reciprocal lattice vectors
     3.518981221  0.000000067  0.000000291     0.284173153  0.164067440  0.000000000
    -1.759490562  3.047527159  0.000000144    -0.000000006  0.328134890  0.000000000
     0.000000000  0.000000000 14.036945769    -0.000000006 -0.000000007  0.071240569

  length of vectors
     3.518981221  3.518981220 14.036945769     0.328134890  0.328134890  0.071240569

  position of ions in fractional coordinates (direct lattice)
     0.333333325  0.666666652  0.250000000
     0.666666645  0.333333348  0.750000000
     0.333333294  0.666666676  0.620745780
     0.666666676  0.333333324  0.379254220
     0.666666654  0.333333307  0.120745780
     0.333333316  0.666666693  0.879254220

  ion indices of the primitive-cell ions
   primitive index   ion index
                 1           1
                 2           2
                 3           3
                 4           4
                 5           5
                 6           6

----------------------------------------------------------------------------------------

 
 
 KPOINTS: 6x6x2                                   

Automatic generation of k-mesh.
 Grid dimensions read from file:
 generate k-points for:    6    6    2

 Generating k-lattice:

  Cartesian coordinates                     Fractional coordinates (reciprocal lattice)
     0.047362192  0.027344573  0.000000000     0.166666667  0.000000000  0.000000000
    -0.000000001  0.054689148  0.000000000     0.000000000  0.166666667  0.000000000
    -0.000000003 -0.000000003  0.035620284     0.000000000 -0.000000000  0.500000000

  Length of vectors
     0.054689148  0.054689148  0.035620284

  Shift w.r.t. Gamma in fractional coordinates (k-lattice)
     0.000000000  0.000000000  0.000000000

 
 Subroutine IBZKPT returns following result:
 ===========================================
 
 Found     14 irreducible k-points:
 
 Following reciprocal coordinates:
            Coordinates               Weight
  0.000000  0.000000  0.000000      1.000000
  0.166667  0.000000  0.000000      6.000000
  0.333333  0.000000  0.000000      6.000000
  0.500000 -0.000000  0.000000      3.000000
  0.166667  0.166667  0.000000      6.000000
  0.333333  0.166667  0.000000     12.000000
  0.333333  0.333333  0.000000      2.000000
  0.000000 -0.000000  0.500000      1.000000
  0.166667  0.000000  0.500000      6.000000
  0.333333  0.000000  0.500000      6.000000
  0.500000 -0.000000  0.500000      3.000000
  0.166667  0.166667  0.500000      6.000000
  0.333333  0.166667  0.500000     12.000000
  0.333333  0.333333  0.500000      2.000000
 
 Following cartesian coordinates:
            Coordinates               Weight
  0.000000  0.000000  0.000000      1.000000
  0.047362  0.027345  0.000000      6.000000
  0.094724  0.054689  0.000000      6.000000
  0.142087  0.082034  0.000000      3.000000
  0.047362  0.082034  0.000000      6.000000
  0.094724  0.109378  0.000000     12.000000
  0.094724  0.164067  0.000000      2.000000
 -0.000000 -0.000000  0.035620      1.000000
  0.047362  0.027345  0.035620      6.000000
  0.094724  0.054689  0.035620      6.000000
  0.142087  0.082034  0.035620      3.000000
  0.047362  0.082034  0.035620      6.000000
  0.094724  0.109378  0.035620     12.000000
  0.094724  0.164067  0.035620      2.000000
 


--------------------------------------------------------------------------------------------------------




 Dimension of arrays:
   k-points           NKPTS =     14   k-points in BZ     NKDIM =     14   number of bands    NBANDS=     31
   number of dos      NEDOS =    301   number of ions     NIONS =      6
   non local maximal  LDIM  =      6   non local SUM 2l+1 LMDIM =     18
   total plane-waves  NPLWV =  10584
   max r-space proj   IRMAX =      1   max aug-charges    IRDMAX=   4288
   dimension x,y,z NGX =    14 NGY =   14 NGZ =   54
   dimension x,y,z NGXF=    28 NGYF=   28 NGZF=  108
   support grid    NGXF=    28 NGYF=   28 NGZF=  108
   ions per type =               2   4
   NGX,Y,Z   is equivalent  to a cutoff of   6.61,  6.61,  6.40 a.u.
   NGXF,Y,Z  is equivalent  to a cutoff of  13.23, 13.23, 12.79 a.u.

 SYSTEM =  bulk MoTe2                              
 POSCAR =  Mo Te2                                  

 Startparameter for this run:
   NWRITE =      2    write-flag & timer
   PREC   = normal    normal or accurate (medium, high low for compatibility)
   ISTART =      0    job   : 0-new  1-cont  2-samecut
   ICHARG =      2    charge: 1-file 2-atom 10-const
   ISPIN  =      1    spin polarized calculation?
   LNONCOLLINEAR =      F non collinear calculations
   LSORBIT =      F    spin-orbit coupling
   INIWAV =      1    electr: 0-lowe 1-rand  2-diag
   LASPH  =      T    aspherical Exc in radial PAW
 Electronic Relaxation 1
   ENCUT  =  242.7 eV  17.84 Ry    4.22 a.u.   4.47  4.47 17.83*2*pi/ulx,y,z
   ENINI  =  242.7     initial cutoff
   ENAUG  =  446.0 eV  augmentation charge cutoff
   NELM   =     60;   NELMIN=  2; NELMDL= -5     # of ELM steps 
   EDIFF  = 0.1E-05   stopping-criterion for ELM
   LREAL  =      F    real-space projection
   NLSPLINE    = F    spline interpolate recip. space projectors
   LCOMPAT=      F    compatible to vasp.4.4
   GGA_COMPAT  = T    GGA compatible to vasp.4.4-vasp.4.6
   LMAXPAW     = -100 max onsite density
   LMAXMIX     =    4 max onsite mixed and CHGCAR
   VOSKOWN=      0    Vosko Wilk Nusair interpolation
   ROPT   =    0.00000   0.00000
 Ionic relaxation
   EDIFFG = 0.1E-04   stopping-criterion for IOM
   NSW    =      0    number of steps for IOM
   NBLOCK =      1;   KBLOCK =      1    inner block; outer block 
   IBRION =     -1    ionic relax: 0-MD 1-quasi-New 2-CG
   NFREE  =      0    steps in history (QN), initial steepest desc. (CG)
   ISIF   =      2    stress and relaxation
   IWAVPR =     10    prediction:  0-non 1-charg 2-wave 3-comb
   ISYM   =      2    0-nonsym 1-usesym 2-fastsym
   LCORR  =      T    Harris-Foulkes like correction to forces

   POTIM  = 0.5000    time-step for ionic-motion
   TEIN   =    0.0    initial temperature
   TEBEG  =    0.0;   TEEND  =   0.0 temperature during run
   SMASS  =  -3.00    Nose mass-parameter (am)
   estimated Nose-frequenzy (Omega)   =  0.10E-29 period in steps = 0.13E+47 mass=  -0.283E-27a.u.
   SCALEE = 1.0000    scale energy and forces
   NPACO  =    256;   APACO  = 10.0  distance and # of slots for P.C.
   PSTRESS=    0.0 pullay stress

  Mass of Ions in am
   POMASS =  95.94127.60
  Ionic Valenz
   ZVAL   =  14.00  6.00
  Atomic Wigner-Seitz radii
   RWIGS  =  -1.00 -1.00
  virtual crystal weights 
   VCA    =   1.00  1.00
   NELECT =      52.0000    total number of electrons
   NUPDOWN=      -1.0000    fix difference up-down

 DOS related values:
   EMIN   =  10.00;   EMAX   =-10.00  energy-range for DOS
   EFERMI =   0.00;   METHOD = LEGACY      
   ISMEAR =     0;   SIGMA  =   0.05  broadening in eV -4-tet -1-fermi 0-gaus
   EFERMI_NEDOS =   21; number of points for ismear=-14 and -15

 Electronic relaxation 2 (details)
   IALGO  =     38    algorithm
   LDIAG  =      T    sub-space diagonalisation (order eigenvalues)
   LSUBROT=      F    optimize rotation matrix (better conditioning)
   LROBUST=      F    robust break criterion during scf (extrapolated energy error)
   ISEARCH=      0    line search for conjugate gradient (0, 1=use gradient)
   TURBO    =      0    0=normal 1=particle mesh
   IRESTART =      0    0=no restart 2=restart with 2 vectors
   NREBOOT  =      0    no. of reboots
   NMIN     =      0    reboot dimension
   EREF     =   0.00    reference energy to select bands
   IMIX   =      4    mixing-type and parameters
     AMIX     =   0.40;   BMIX     =  1.00
     AMIX_MAG =   1.60;   BMIX_MAG =  1.00
     AMIN     =   0.10
     WC   =   100.;   INIMIX=   1;  MIXPRE=   1;  MAXMIX= -45

 Intra band minimization:
   WEIMIN = 0.0000     energy-eigenvalue tresh-hold
   EBREAK =  0.81E-08  absolut break condition
   DEPER  =   0.30     relativ break condition  

   TIME   =   0.40     timestep for ELM

  volume/ion in A,a.u.               =      25.09       169.31
  Fermi-wavevector in a.u.,A,eV,Ry     =   1.148674  2.170680 17.952242  1.319453
  Thomas-Fermi vector in A             =   2.285348
 
 Write flags
   LWAVE        =      T    write WAVECAR
   LDOWNSAMPLE  =      F    k-point downsampling of WAVECAR
   LCHARG       =      T    write CHGCAR
   LVTOT        =      F    write LOCPOT, total local potential
   LVHAR        =      F    write LOCPOT, Hartree potential only
   WRT_POTENTIAL= false  ! write potential to hdf5 file
   LELF         =      F    write electronic localiz. function (ELF)
   LORBIT       =      0    0 simple, 1 ext, 2 COOP (PROOUT), +10 PAW based schemes


 Python interface
   PLUGINS active      =      F    recompile with -DPLUGINS to activate
 
 Dipole corrections
   LMONO      =      F    monopole corrections only (constant potential shift)
   LDIPOL     =      F    correct potential (dipole corrections)
   IDIPOL     =      0    1-x, 2-y, 3-z, 4-all directions 
   EPSILON    =  1.0000000 bulk dielectric constant
   LVACPOTAV  =      F  vacuum potentials using an averaging scheme for the charge density
   VACPOTFLAT =  0.1000000 required flatness to determine vacuum potential
 
Coulomb truncation method
  LTRUNCATE          =      F  Coulomb kernel truncation to be used

 
 Exchange correlation treatment:
   GGA     = PE    functional components
   XC_C    = 1    coefficients multiplying the functional components
   LIBXC   =     F    Libxc                    
   VOSKOWN =     0    Vosko Wilk Nusair interpolation
   LHFCALC =     F    Hartree Fock is set to
   LHFONE  =     F    Hartree Fock one center treatment
   AEXX    =    0.0000 exact exchange contribution

 Parameters of functionals:
   PE:
     No parameter
 
 Van der Waals corrections
   IVDW    =    11    specifies the selected vdW correction

 Linear response parameters
   LEPSILON=     F    determine dielectric tensor
   LRPA    =     F    only Hartree local field effects (RPA)
   LNABLA  =     F    use nabla operator in PAW spheres
   LVEL    =     F    velocity operator in full k-point grid
   CSHIFT  =0.1000    complex shift for real part using Kramers Kronig
   OMEGAMAX=  -1.0    maximum frequency
   DEG_THRESHOLD= 0.2000000E-02 threshold for treating states as degnerate
   RTIME   =   -0.100 relaxation time in fs
  (WPLASMAI=    0.000 imaginary part of plasma frequency in eV, 0.658/RTIME)
   DFIELD  = 0.0000000 0.0000000 0.0000000 field for delta impulse in time
 
  Optional k-point grid parameters
   LKPOINTS_OPT  =     F    use optional k-point grid
   KPOINTS_OPT_MODE=     1    mode for optional k-point grid
 
 Orbital magnetization related:
   ORBITALMAG=     F  switch on orbital magnetization
   LCHIMAG   =     F  perturbation theory with respect to B field
   DQ        =  0.001000  dq finite difference perturbation B field
   LLRAUG    =     F  two centre corrections for induced B field
   LBONE     =     F  B-component reconstruction in AE one-centre
   LVGVCALC  =     T  calculate vGv susceptibility
   LVGVAPPL  =     F  apply vGv susceptibility instead of pGv for G=0

 Random number generation:
   RANDOM_GENERATOR = DEFAULT
   PCG_SEED         = not used


--------------------------------------------------------------------------------------------------------


 Static calculation
 charge density and potential will be updated during run
 non-spin polarized calculation
 Variant of blocked Davidson
 Davidson routine will perform the subspace rotation
 perform sub-space diagonalisation
    after iterative eigenvector-optimisation
 modified Broyden-mixing scheme, WC =      100.0
 initial mixing is a Kerker type mixing with AMIX =  0.4000 and BMIX =      1.0000
 Hartree-type preconditioning will be used
 using additional bands            5
 reciprocal scheme for non local part
 use partial core corrections
 calculate Harris-corrections to forces 
   (improved forces if not selfconsistent)
 use gradient corrections 
 use of overlap-Matrix (Vanderbilt PP)
 Gauss-broadening in eV      SIGMA  =   0.05


--------------------------------------------------------------------------------------------------------


  energy-cutoff  :      242.68
  volume of cell :      150.53
      direct lattice vectors                 reciprocal lattice vectors
     3.518981221  0.000000067  0.000000291     0.284173153  0.164067440  0.000000000
    -1.759490562  3.047527159  0.000000144    -0.000000006  0.328134890  0.000000000
     0.000000000  0.000000000 14.036945769    -0.000000006 -0.000000007  0.071240569

  length of vectors
     3.518981221  3.518981220 14.036945769     0.328134890  0.328134890  0.071240569


 
 k-points in units of 2pi/SCALE and weight: 6x6x2                                   
   0.00000000  0.00000000  0.00000000       0.014
   0.04736219  0.02734457  0.00000000       0.083
   0.09472438  0.05468915  0.00000000       0.083
   0.14208658  0.08203372  0.00000000       0.042
   0.04736219  0.08203372  0.00000000       0.083
   0.09472438  0.10937830  0.00000000       0.167
   0.09472438  0.16406744  0.00000000       0.028
  -0.00000000 -0.00000000  0.03562028       0.014
   0.04736219  0.02734457  0.03562028       0.083
   0.09472438  0.05468914  0.03562028       0.083
   0.14208657  0.08203372  0.03562028       0.042
   0.04736219  0.08203372  0.03562028       0.083
   0.09472438  0.10937829  0.03562028       0.167
   0.09472438  0.16406744  0.03562028       0.028
 
 k-points in reciprocal lattice and weights: 6x6x2                                   
   0.00000000  0.00000000  0.00000000       0.014
   0.16666667  0.00000000  0.00000000       0.083
   0.33333333  0.00000000  0.00000000       0.083
   0.50000000 -0.00000000  0.00000000       0.042
   0.16666667  0.16666667  0.00000000       0.083
   0.33333333  0.16666667  0.00000000       0.167
   0.33333333  0.33333333  0.00000000       0.028
   0.00000000 -0.00000000  0.50000000       0.014
   0.16666667  0.00000000  0.50000000       0.083
   0.33333333  0.00000000  0.50000000       0.083
   0.50000000 -0.00000000  0.50000000       0.042
   0.16666667  0.16666667  0.50000000       0.083
   0.33333333  0.16666667  0.50000000       0.167
   0.33333333  0.33333333  0.50000000       0.028
 
 position of ions in fractional coordinates (direct lattice) 
   0.33333333  0.66666665  0.25000000
   0.66666664  0.33333335  0.75000000
   0.33333329  0.66666668  0.62074578
   0.66666668  0.33333332  0.37925422
   0.66666665  0.33333331  0.12074578
   0.33333332  0.66666669  0.87925422
 
 position of ions in cartesian coordinates  (Angst):
   0.00000003  2.03168475  3.50923663
   1.75949052  1.01584248 10.52770957
  -0.00000012  2.03168482  8.71337504
   1.75949068  1.01584240  5.32357116
   1.75949063  1.01584235  1.69490221
  -0.00000007  2.03168487 12.34204400
 


--------------------------------------------------------------------------------------------------------


 k-point     1 :   0.0000 0.0000 0.0000  plane waves:    1325
 k-point     2 :   0.1667 0.0000 0.0000  plane waves:    1312
 k-point     3 :   0.3333 0.0000 0.0000  plane waves:    1300
 k-point     4 :   0.5000-0.0000 0.0000  plane waves:    1272
 k-point     5 :   0.1667 0.1667 0.0000  plane waves:    1307
 k-point     6 :   0.3333 0.1667 0.0000  plane waves:    1278
 k-point     7 :   0.3333 0.3333 0.0000  plane waves:    1284
 k-point     8 :   0.0000-0.0000 0.5000  plane waves:    1296
 k-point     9 :   0.1667 0.0000 0.5000  plane waves:    1310
 k-point    10 :   0.3333 0.0000 0.5000  plane waves:    1294
 k-point    11 :   0.5000-0.0000 0.5000  plane waves:    1280
 k-point    12 :   0.1667 0.1667 0.5000  plane waves:    1292
 k-point    13 :   0.3333 0.1667 0.5000  plane waves:    1284
 k-point    14 :   0.3333 0.3333 0.5000  plane waves:    1290

 maximum and minimum number of plane-waves per node :       666      632

 maximum number of plane-waves:      1325
 maximum index in each direction: 
   IXMAX=    4   IYMAX=    4   IZMAX=   17
   IXMIN=   -4   IYMIN=   -4   IZMIN=  -18


 parallel 3D FFT for wavefunctions:
    minimum data exchange during FFTs selected (reduces bandwidth)
 parallel 3D FFT for charge:
    minimum data exchange during FFTs selected (reduces bandwidth)


 total amount of memory used by VASP MPI-rank0    41866. kBytes
=======================================================================

   base                                    :      30000. kBytes
   nonl-proj                               :       2720. kBytes
   fftplans                                :       1604. kBytes
   grid                                    :       2615. kBytes
   one-center                              :         46. kBytes
   wavefun                                 :       4881. kBytes
 
     INWAV:  cpu time      0.0000: real time      0.0000
 Broyden mixing: mesh for mixing (old mesh)
   NGX =  9   NGY =  9   NGZ = 35
  (NGX  = 28   NGY  = 28   NGZ  =108)
  gives a total of   2835 points

 initial charge density was supplied:
 charge density of overlapping atoms calculated
 number of electron      52.0000000 magnetization 
 keeping initial charge density in first step


--------------------------------------------------------------------------------------------------------


 Maximum index for augmentation-charges         1971 (set IRDMAX)


--------------------------------------------------------------------------------------------------------


 First call to EWALD:  gamma=   0.333
 Maximum number of real-space cells   4x   4x   1
 Maximum number of reciprocal cells   2x   2x   6

    FEWALD:  cpu time      0.0011: real time      0.0011


--------------------------------------- Ionic step        1  -------------------------------------------




--------------------------------------- Iteration      1(   1)  ---------------------------------------


    POTLOK:  cpu time      0.0131: real time      0.0239
    SETDIJ:  cpu time      0.0420: real time      0.0422
     EDDAV:  cpu time      0.0710: real time      0.0748
       DOS:  cpu time      0.0004: real time      0.0004
    --------------------------------------------
      LOOP:  cpu time      0.1270: real time      0.1419

 eigenvalue-minimisations  :  1124
 total energy-change (2. order) : 0.2420604E+03  (-0.1946143E+04)
 number of electron      52.0000000 magnetization 
 augmentation part       52.0000000 magnetization 

 Free energy of the ion-electron system (eV)
  ---------------------------------------------------
  alpha Z        PSCENC =        96.92262515
  Ewald energy   TEWEN  =     -2919.12777455
  -Hartree energ DENC   =     -1657.43049423
  -exchange      EXHF   =         0.00000000
  -V(xc)+E(xc)   XCENC  =        21.69616759
  PAW double counting   =      3826.61822168    -3635.71132862
  entropy T*S    EENTRO =        -0.00773892
  eigenvalues    EBANDS =      -108.27650538
  atomic energy  EATOM  =      4617.37722804
  Solvation  Ediel_sol  =         0.00000000
  ---------------------------------------------------
  free energy    TOTEN  =       242.06040075 eV

  energy without entropy =      242.06813967  energy(sigma->0) =      242.06427021


--------------------------------------------------------------------------------------------------------




--------------------------------------- Iteration      1(   2)  ---------------------------------------


     EDDAV:  cpu time      0.0368: real time      0.0387
       DOS:  cpu time      0.0002: real time      0.0002
    --------------------------------------------
      LOOP:  cpu time      0.0370: real time      0.0389

 eigenvalue-minimisations  :  1174
 total energy-change (2. order) :-0.2658018E+03  (-0.2592146E+03)
 number of electron      52.0000000 magnetization 
 augmentation part       52.0000000 magnetization 

 Free energy of the ion-electron system (eV)
  ---------------------------------------------------
  alpha Z        PSCENC =        96.92262515
  Ewald energy   TEWEN  =     -2919.12777455
  -Hartree energ DENC   =     -1657.43049423
  -exchange      EXHF   =         0.00000000
  -V(xc)+E(xc)   XCENC  =        21.69616759
  PAW double counting   =      3826.61822168    -3635.71132862
  entropy T*S    EENTRO =        -0.00022113
  eigenvalues    EBANDS =      -374.08585512
  atomic energy  EATOM  =      4617.37722804
  Solvation  Ediel_sol  =         0.00000000
  ---------------------------------------------------
  free energy    TOTEN  =       -23.74143119 eV

  energy without entropy =      -23.74121006  energy(sigma->0) =      -23.74132062


--------------------------------------------------------------------------------------------------------




--------------------------------------- Iteration      1(   3)  ---------------------------------------


     EDDAV:  cpu time      0.0420: real time      0.0439
       DOS:  cpu time      0.0001: real time      0.0001
    --------------------------------------------
      LOOP:  cpu time      0.0421: real time      0.0440

 eigenvalue-minimisations  :  1073
 total energy-change (2. order) :-0.1316002E+02  (-0.1305798E+02)
 number of electron      52.0000000 magnetization 
 augmentation part       52.0000000 magnetization 

 Free energy of the ion-electron system (eV)
  ---------------------------------------------------
  alpha Z        PSCENC =        96.92262515
  Ewald energy   TEWEN  =     -2919.12777455
  -Hartree energ DENC   =     -1657.43049423
  -exchange      EXHF   =         0.00000000
  -V(xc)+E(xc)   XCENC  =        21.69616759
  PAW double counting   =      3826.61822168    -3635.71132862
  entropy T*S    EENTRO =        -0.00000000
  eigenvalues    EBANDS =      -387.24609413
  atomic energy  EATOM  =      4617.37722804
  Solvation  Ediel_sol  =         0.00000000
  ---------------------------------------------------
  free energy    TOTEN  =       -36.90144908 eV

  energy without entropy =      -36.90144908  energy(sigma->0) =      -36.90144908


--------------------------------------------------------------------------------------------------------




--------------------------------------- Iteration      1(   4)  ---------------------------------------


     EDDAV:  cpu time      0.0398: real time      0.0410
       DOS:  cpu time      0.0001: real time      0.0001
    --------------------------------------------
      LOOP:  cpu time      0.0397: real time      0.0410

 eigenvalue-minimisations  :  1133
 total energy-change (2. order) :-0.3371803E+00  (-0.3364267E+00)
 number of electron      52.0000000 magnetization 
 augmentation part       52.0000000 magnetization 

 Free energy of the ion-electron system (eV)
  ---------------------------------------------------
  alpha Z        PSCENC =        96.92262515
  Ewald energy   TEWEN  =     -2919.12777455
  -Hartree energ DENC   =     -1657.43049423
  -exchange      EXHF   =         0.00000000
  -V(xc)+E(xc)   XCENC  =        21.69616759
  PAW double counting   =      3826.61822168    -3635.71132862
  entropy T*S    EENTRO =        -0.00000000
  eigenvalues    EBANDS =      -387.58327448
  atomic energy  EATOM  =      4617.37722804
  Solvation  Ediel_sol  =         0.00000000
  ---------------------------------------------------
  free energy    TOTEN  =       -37.23862942 eV

  energy without entropy =      -37.23862942  energy(sigma->0) =      -37.23862942


--------------------------------------------------------------------------------------------------------




--------------------------------------- Iteration      1(   5)  ---------------------------------------


     EDDAV:  cpu time      0.0356: real time      0.0363
       DOS:  cpu time      0.0001: real time      0.0001
    CHARGE:  cpu time      0.0042: real time      0.0046
    MIXING:  cpu time      0.0009: real time      0.0012
    --------------------------------------------
      LOOP:  cpu time      0.0405: real time      0.0419

 eigenvalue-minimisations  :  1085
 total energy-change (2. order) :-0.8873516E-02  (-0.8871149E-02)
 number of electron      52.0000083 magnetization 
 augmentation part       -0.3221831 magnetization 

 Broyden mixing:
  rms(total) = 0.21330E+01    rms(broyden)= 0.21329E+01
  rms(prec ) = 0.21850E+01
  weight for this iteration     100.00

 Free energy of the ion-electron system (eV)
  ---------------------------------------------------
  alpha Z        PSCENC =        96.92262515
  Ewald energy   TEWEN  =     -2919.12777455
  -Hartree energ DENC   =     -1657.43049423
  -exchange      EXHF   =         0.00000000
  -V(xc)+E(xc)   XCENC  =        21.69616759
  PAW double counting   =      3826.61822168    -3635.71132862
  entropy T*S    EENTRO =        -0.00000000
  eigenvalues    EBANDS =      -387.59214800
  atomic energy  EATOM  =      4617.37722804
  Solvation  Ediel_sol  =         0.00000000
  ---------------------------------------------------
  free energy    TOTEN  =       -37.24750294 eV

  energy without entropy =      -37.24750294  energy(sigma->0) =      -37.24750294


--------------------------------------------------------------------------------------------------------




--------------------------------------- Iteration      1(   6)  ---------------------------------------


    POTLOK:  cpu time      0.0144: real time      0.0153
    SETDIJ:  cpu time      0.0512: real time      0.0516
     EDDAV:  cpu time      0.0322: real time      0.0324
       DOS:  cpu time      0.0001: real time      0.0001
    CHARGE:  cpu time      0.0035: real time      0.0035
    MIXING:  cpu time      0.0016: real time      0.0017
    --------------------------------------------
      LOOP:  cpu time      0.1031: real time      0.1046

 eigenvalue-minimisations  :  1003
 total energy-change (2. order) : 0.7760649E+00  (-0.9599442E+00)
 number of electron      52.0000098 magnetization 
 augmentation part        0.5579889 magnetization 

 Broyden mixing:
  rms(total) = 0.90914E+00    rms(broyden)= 0.90911E+00
  rms(prec ) = 0.99979E+00
  weight for this iteration     100.00

 eigenvalues of (default mixing * dielectric matrix)
  average eigenvalue GAMMA=   1.2440
  1.2440

 Free energy of the ion-electron system (eV)
  ---------------------------------------------------
  alpha Z        PSCENC =        96.92262515
  Ewald energy   TEWEN  =     -2919.12777455
  -Hartree energ DENC   =     -1617.79941332
  -exchange      EXHF   =         0.00000000
  -V(xc)+E(xc)   XCENC  =        20.18195989
  PAW double counting   =      4368.01660818    -4181.67678008
  entropy T*S    EENTRO =        -0.00000000
  eigenvalues    EBANDS =      -420.36589130
  atomic energy  EATOM  =      4617.37722804
  Solvation  Ediel_sol  =         0.00000000
  ---------------------------------------------------
  free energy    TOTEN  =       -36.47143799 eV

  energy without entropy =      -36.47143799  energy(sigma->0) =      -36.47143799


--------------------------------------------------------------------------------------------------------




--------------------------------------- Iteration      1(   7)  ---------------------------------------


    POTLOK:  cpu time      0.0138: real time      0.0141
    SETDIJ:  cpu time      0.0511: real time      0.0517
     EDDAV:  cpu time      0.0531: real time      0.0534
       DOS:  cpu time      0.0001: real time      0.0001
    CHARGE:  cpu time      0.0037: real time      0.0040
    MIXING:  cpu time      0.0013: real time      0.0013
    --------------------------------------------
      LOOP:  cpu time      0.1230: real time      0.1245

 eigenvalue-minimisations  :   980
 total energy-change (2. order) : 0.7205093E-01  (-0.9328778E+00)
 number of electron      52.0000089 magnetization 
 augmentation part       -0.1529853 magnetization 

 Broyden mixing:
  rms(total) = 0.63712E+00    rms(broyden)= 0.63705E+00
  rms(prec ) = 0.74090E+00
  weight for this iteration     100.00

 eigenvalues of (default mixing * dielectric matrix)
  average eigenvalue GAMMA=   1.0512
  1.5945  0.5080

 Free energy of the ion-electron system (eV)
  ---------------------------------------------------
  alpha Z        PSCENC =        96.92262515
  Ewald energy   TEWEN  =     -2919.12777455
  -Hartree energ DENC   =     -1652.43840218
  -exchange      EXHF   =         0.00000000
  -V(xc)+E(xc)   XCENC  =        21.00461399
  PAW double counting   =      4833.92933070    -4646.39110411
  entropy T*S    EENTRO =        -0.00000000
  eigenvalues    EBANDS =      -387.67590410
  atomic energy  EATOM  =      4617.37722804
  Solvation  Ediel_sol  =         0.00000000
  ---------------------------------------------------
  free energy    TOTEN  =       -36.39938706 eV

  energy without entropy =      -36.39938706  energy(sigma->0) =      -36.39938706


--------------------------------------------------------------------------------------------------------




--------------------------------------- Iteration      1(   8)  ---------------------------------------


    POTLOK:  cpu time      0.0122: real time      0.0140
    SETDIJ:  cpu time      0.0512: real time      0.0519
     EDDAV:  cpu time      0.0408: real time      0.0411
       DOS:  cpu time      0.0001: real time      0.0001
    CHARGE:  cpu time      0.0035: real time      0.0035
    MIXING:  cpu time      0.0013: real time      0.0013
    --------------------------------------------
      LOOP:  cpu time      0.1092: real time      0.1119

 eigenvalue-minimisations  :  1059
 total energy-change (2. order) : 0.4333070E+00  (-0.1912594E+00)
 number of electron      52.0000093 magnetization 
 augmentation part        0.1434958 magnetization 

 Broyden mixing:
  rms(total) = 0.31397E+00    rms(broyden)= 0.31396E+00
  rms(prec ) = 0.32052E+00
  weight for this iteration     100.00

 eigenvalues of (default mixing * dielectric matrix)
  average eigenvalue GAMMA=   1.1739
  2.2609  0.7742  0.4866

 Free energy of the ion-electron system (eV)
  ---------------------------------------------------
  alpha Z        PSCENC =        96.92262515
  Ewald energy   TEWEN  =     -2919.12777455
  -Hartree energ DENC   =     -1634.03351391
  -exchange      EXHF   =         0.00000000
  -V(xc)+E(xc)   XCENC  =        20.49448991
  PAW double counting   =      5056.13748975    -4870.27005760
  entropy T*S    EENTRO =        -0.00000000
  eigenvalues    EBANDS =      -403.46656681
  atomic energy  EATOM  =      4617.37722804
  Solvation  Ediel_sol  =         0.00000000
  ---------------------------------------------------
  free energy    TOTEN  =       -35.96608001 eV

  energy without entropy =      -35.96608001  energy(sigma->0) =      -35.96608001


--------------------------------------------------------------------------------------------------------




--------------------------------------- Iteration      1(   9)  ---------------------------------------


    POTLOK:  cpu time      0.0134: real time      0.0137
    SETDIJ:  cpu time      0.0509: real time      0.0513
     EDDAV:  cpu time      0.0332: real time      0.0334
       DOS:  cpu time      0.0001: real time      0.0001
    CHARGE:  cpu time      0.0038: real time      0.0038
    MIXING:  cpu time      0.0011: real time      0.0011
    --------------------------------------------
      LOOP:  cpu time      0.1024: real time      0.1034

 eigenvalue-minimisations  :  1157
 total energy-change (2. order) : 0.8989846E-03  (-0.2598334E-01)
 number of electron      52.0000095 magnetization 
 augmentation part        0.2686186 magnetization 

 Broyden mixing:
  rms(total) = 0.11337E+00    rms(broyden)= 0.11336E+00
  rms(prec ) = 0.12290E+00
  weight for this iteration     100.00

 eigenvalues of (default mixing * dielectric matrix)
  average eigenvalue GAMMA=   1.2383
  2.3570  1.4396  0.5782  0.5782

 Free energy of the ion-electron system (eV)
  ---------------------------------------------------
  alpha Z        PSCENC =        96.92262515
  Ewald energy   TEWEN  =     -2919.12777455
  -Hartree energ DENC   =     -1629.64840827
  -exchange      EXHF   =         0.00000000
  -V(xc)+E(xc)   XCENC  =        20.36426915
  PAW double counting   =      5260.69229290    -5075.44091789
  entropy T*S    EENTRO =        -0.00000000
  eigenvalues    EBANDS =      -407.10449557
  atomic energy  EATOM  =      4617.37722804
  Solvation  Ediel_sol  =         0.00000000
  ---------------------------------------------------
  free energy    TOTEN  =       -35.96518103 eV

  energy without entropy =      -35.96518103  energy(sigma->0) =      -35.96518103


--------------------------------------------------------------------------------------------------------




--------------------------------------- Iteration      1(  10)  ---------------------------------------


    POTLOK:  cpu time      0.0142: real time      0.0148
    SETDIJ:  cpu time      0.0511: real time      0.0514
     EDDAV:  cpu time      0.0315: real time      0.0317
       DOS:  cpu time      0.0001: real time      0.0001
    CHARGE:  cpu time      0.0041: real time      0.0041
    MIXING:  cpu time      0.0011: real time      0.0011
    --------------------------------------------
      LOOP:  cpu time      0.1021: real time      0.1032

 eigenvalue-minimisations  :  1032
 total energy-change (2. order) : 0.5755796E-02  (-0.4362486E-02)
 number of electron      52.0000094 magnetization 
 augmentation part        0.2135278 magnetization 

 Broyden mixing:
  rms(total) = 0.36693E-01    rms(broyden)= 0.36690E-01
  rms(prec ) = 0.37048E-01
  weight for this iteration     100.00

 eigenvalues of (default mixing * dielectric matrix)
  average eigenvalue GAMMA=   1.4769
  3.1539  2.0182  1.0685  0.5720  0.5720

 Free energy of the ion-electron system (eV)
  ---------------------------------------------------
  alpha Z        PSCENC =        96.92262515
  Ewald energy   TEWEN  =     -2919.12777455
  -Hartree energ DENC   =     -1632.52895103
  -exchange      EXHF   =         0.00000000
  -V(xc)+E(xc)   XCENC  =        20.49074935
  PAW double counting   =      5327.94812200    -5142.50927130
  entropy T*S    EENTRO =        -0.00000000
  eigenvalues    EBANDS =      -404.53215289
  atomic energy  EATOM  =      4617.37722804
  Solvation  Ediel_sol  =         0.00000000
  ---------------------------------------------------
  free energy    TOTEN  =       -35.95942523 eV

  energy without entropy =      -35.95942523  energy(sigma->0) =      -35.95942523


--------------------------------------------------------------------------------------------------------




--------------------------------------- Iteration      1(  11)  ---------------------------------------


    POTLOK:  cpu time      0.0135: real time      0.0149
    SETDIJ:  cpu time      0.0515: real time      0.0518
     EDDAV:  cpu time      0.0327: real time      0.0331
       DOS:  cpu time      0.0002: real time      0.0001
    CHARGE:  cpu time      0.0053: real time      0.0053
    MIXING:  cpu time      0.0016: real time      0.0016
    --------------------------------------------
      LOOP:  cpu time      0.1047: real time      0.1069

 eigenvalue-minimisations  :  1036
 total energy-change (2. order) :-0.3275902E-03  (-0.2003726E-03)
 number of electron      52.0000094 magnetization 
 augmentation part        0.2121552 magnetization 

 Broyden mixing:
  rms(total) = 0.22651E-01    rms(broyden)= 0.22649E-01
  rms(prec ) = 0.22957E-01
  weight for this iteration     100.00

 eigenvalues of (default mixing * dielectric matrix)
  average eigenvalue GAMMA=   1.3172
  2.4451  2.1321  1.2311  0.5793  0.5793  0.9359

 Free energy of the ion-electron system (eV)
  ---------------------------------------------------
  alpha Z        PSCENC =        96.92262515
  Ewald energy   TEWEN  =     -2919.12777455
  -Hartree energ DENC   =     -1632.64839950
  -exchange      EXHF   =         0.00000000
  -V(xc)+E(xc)   XCENC  =        20.51814508
  PAW double counting   =      5364.54357753    -5179.07206987
  entropy T*S    EENTRO =        -0.00000000
  eigenvalues    EBANDS =      -404.47308471
  atomic energy  EATOM  =      4617.37722804
  Solvation  Ediel_sol  =         0.00000000
  ---------------------------------------------------
  free energy    TOTEN  =       -35.95975282 eV

  energy without entropy =      -35.95975282  energy(sigma->0) =      -35.95975282


--------------------------------------------------------------------------------------------------------




--------------------------------------- Iteration      1(  12)  ---------------------------------------


    POTLOK:  cpu time      0.0148: real time      0.0154
    SETDIJ:  cpu time      0.0515: real time      0.0520
     EDDAV:  cpu time      0.0313: real time      0.0315
       DOS:  cpu time      0.0001: real time      0.0001
    CHARGE:  cpu time      0.0039: real time      0.0039
    MIXING:  cpu time      0.0013: real time      0.0013
    --------------------------------------------
      LOOP:  cpu time      0.1029: real time      0.1042

 eigenvalue-minimisations  :   988
 total energy-change (2. order) : 0.1037049E-03  (-0.2500147E-04)
 number of electron      52.0000094 magnetization 
 augmentation part        0.2127717 magnetization 

 Broyden mixing:
  rms(total) = 0.15134E-01    rms(broyden)= 0.15130E-01
  rms(prec ) = 0.15344E-01
  weight for this iteration     100.00

 eigenvalues of (default mixing * dielectric matrix)
  average eigenvalue GAMMA=   1.4043
  2.5332  2.5332  0.5748  0.5748  1.4670  1.0735  1.0735

 Free energy of the ion-electron system (eV)
  ---------------------------------------------------
  alpha Z        PSCENC =        96.92262515
  Ewald energy   TEWEN  =     -2919.12777455
  -Hartree energ DENC   =     -1632.63212810
  -exchange      EXHF   =         0.00000000
  -V(xc)+E(xc)   XCENC  =        20.50696982
  PAW double counting   =      5351.47095011    -5165.99953206
  entropy T*S    EENTRO =        -0.00000000
  eigenvalues    EBANDS =      -404.47798753
  atomic energy  EATOM  =      4617.37722804
  Solvation  Ediel_sol  =         0.00000000
  ---------------------------------------------------
  free energy    TOTEN  =       -35.95964912 eV

  energy without entropy =      -35.95964912  energy(sigma->0) =      -35.95964912


--------------------------------------------------------------------------------------------------------




--------------------------------------- Iteration      1(  13)  ---------------------------------------


    POTLOK:  cpu time      0.0118: real time      0.0145
    SETDIJ:  cpu time      0.0523: real time      0.0531
     EDDAV:  cpu time      0.0328: real time      0.0329
       DOS:  cpu time      0.0002: real time      0.0002
    CHARGE:  cpu time      0.0050: real time      0.0050
    MIXING:  cpu time      0.0015: real time      0.0015
    --------------------------------------------
      LOOP:  cpu time      0.1036: real time      0.1072

 eigenvalue-minimisations  :  1108
 total energy-change (2. order) : 0.2220171E-04  (-0.1239174E-04)
 number of electron      52.0000094 magnetization 
 augmentation part        0.2153109 magnetization 

 Broyden mixing:
  rms(total) = 0.62969E-02    rms(broyden)= 0.62880E-02
  rms(prec ) = 0.63329E-02
  weight for this iteration     100.00

 eigenvalues of (default mixing * dielectric matrix)
  average eigenvalue GAMMA=   1.3940
  2.7057  2.2889  1.5415  1.5415  0.5756  0.5756  0.9615  0.9615

 Free energy of the ion-electron system (eV)
  ---------------------------------------------------
  alpha Z        PSCENC =        96.92262515
  Ewald energy   TEWEN  =     -2919.12777455
  -Hartree energ DENC   =     -1632.59413748
  -exchange      EXHF   =         0.00000000
  -V(xc)+E(xc)   XCENC  =        20.50394866
  PAW double counting   =      5353.37835161    -5167.90771374
  entropy T*S    EENTRO =        -0.00000000
  eigenvalues    EBANDS =      -404.51215460
  atomic energy  EATOM  =      4617.37722804
  Solvation  Ediel_sol  =         0.00000000
  ---------------------------------------------------
  free energy    TOTEN  =       -35.95962692 eV

  energy without entropy =      -35.95962692  energy(sigma->0) =      -35.95962692


--------------------------------------------------------------------------------------------------------




--------------------------------------- Iteration      1(  14)  ---------------------------------------


    POTLOK:  cpu time      0.0145: real time      0.0158
    SETDIJ:  cpu time      0.0516: real time      0.0519
     EDDAV:  cpu time      0.0299: real time      0.0301
       DOS:  cpu time      0.0001: real time      0.0001
    CHARGE:  cpu time      0.0033: real time      0.0034
    MIXING:  cpu time      0.0016: real time      0.0016
    --------------------------------------------
      LOOP:  cpu time      0.1011: real time      0.1028

 eigenvalue-minimisations  :   907
 total energy-change (2. order) :-0.1545101E-05  (-0.4714655E-06)
 number of electron      52.0000094 magnetization 
 augmentation part        0.2153908 magnetization 

 Broyden mixing:
  rms(total) = 0.52947E-02    rms(broyden)= 0.52841E-02
  rms(prec ) = 0.53236E-02
  weight for this iteration     100.00

 eigenvalues of (default mixing * dielectric matrix)
  average eigenvalue GAMMA=   1.4462
  2.9560  2.3867  1.7533  1.3931  1.3931  0.5754  0.5754  0.9916  0.9916

 Free energy of the ion-electron system (eV)
  ---------------------------------------------------
  alpha Z        PSCENC =        96.92262515
  Ewald energy   TEWEN  =     -2919.12777455
  -Hartree energ DENC   =     -1632.59863825
  -exchange      EXHF   =         0.00000000
  -V(xc)+E(xc)   XCENC  =        20.50422942
  PAW double counting   =      5354.43190810    -5168.96174480
  entropy T*S    EENTRO =        -0.00000000
  eigenvalues    EBANDS =      -404.50746158
  atomic energy  EATOM  =      4617.37722804
  Solvation  Ediel_sol  =         0.00000000
  ---------------------------------------------------
  free energy    TOTEN  =       -35.95962846 eV

  energy without entropy =      -35.95962846  energy(sigma->0) =      -35.95962846


--------------------------------------------------------------------------------------------------------




--------------------------------------- Iteration      1(  15)  ---------------------------------------


    POTLOK:  cpu time      0.0127: real time      0.0142
    SETDIJ:  cpu time      0.0518: real time      0.0522
     EDDAV:  cpu time      0.0297: real time      0.0299
       DOS:  cpu time      0.0001: real time      0.0001
    CHARGE:  cpu time      0.0044: real time      0.0044
    MIXING:  cpu time      0.0016: real time      0.0016
    --------------------------------------------
      LOOP:  cpu time      0.1004: real time      0.1025

 eigenvalue-minimisations  :   846
 total energy-change (2. order) : 0.1486824E-05  (-0.2801560E-06)
 number of electron      52.0000094 magnetization 
 augmentation part        0.2157203 magnetization 

 Broyden mixing:
  rms(total) = 0.20294E-02    rms(broyden)= 0.20014E-02
  rms(prec ) = 0.20500E-02
  weight for this iteration     100.00

 eigenvalues of (default mixing * dielectric matrix)
  average eigenvalue GAMMA=   1.4826
  2.9726  2.5147  2.0211  1.6644  1.6644  0.5754  0.5754  0.9900  0.9900  0.8579

 Free energy of the ion-electron system (eV)
  ---------------------------------------------------
  alpha Z        PSCENC =        96.92262515
  Ewald energy   TEWEN  =     -2919.12777455
  -Hartree energ DENC   =     -1632.59571563
  -exchange      EXHF   =         0.00000000
  -V(xc)+E(xc)   XCENC  =        20.50368461
  PAW double counting   =      5355.52365426    -5170.05353482
  entropy T*S    EENTRO =        -0.00000000
  eigenvalues    EBANDS =      -404.50979405
  atomic energy  EATOM  =      4617.37722804
  Solvation  Ediel_sol  =         0.00000000
  ---------------------------------------------------
  free energy    TOTEN  =       -35.95962697 eV

  energy without entropy =      -35.95962697  energy(sigma->0) =      -35.95962697


--------------------------------------------------------------------------------------------------------




--------------------------------------- Iteration      1(  16)  ---------------------------------------


    POTLOK:  cpu time      0.0149: real time      0.0155
    SETDIJ:  cpu time      0.0511: real time      0.0515
     EDDAV:  cpu time      0.0285: real time      0.0286
       DOS:  cpu time      0.0003: real time      0.0003
    --------------------------------------------
      LOOP:  cpu time      0.0949: real time      0.0960

 eigenvalue-minimisations  :   723
 total energy-change (2. order) : 0.6907521E-06  (-0.2369889E-06)
 number of electron      52.0000094 magnetization 
 augmentation part        0.2157203 magnetization 

 Free energy of the ion-electron system (eV)
  ---------------------------------------------------
  alpha Z        PSCENC =        96.92262515
  Ewald energy   TEWEN  =     -2919.12777455
  -Hartree energ DENC   =     -1632.58175463
  -exchange      EXHF   =         0.00000000
  -V(xc)+E(xc)   XCENC  =        20.50313309
  PAW double counting   =      5355.90126665    -5170.43203309
  entropy T*S    EENTRO =        -0.00000000
  eigenvalues    EBANDS =      -404.52231696
  atomic energy  EATOM  =      4617.37722804
  Solvation  Ediel_sol  =         0.00000000
  ---------------------------------------------------
  free energy    TOTEN  =       -35.95962628 eV

  energy without entropy =      -35.95962628  energy(sigma->0) =      -35.95962628


--------------------------------------------------------------------------------------------------------




 average (electrostatic) potential at core
  the test charge radii are     1.0818  1.1897
  (the norm of the test charge is              1.0000)
       1 -73.4854       2 -73.4854       3 -86.2293       4 -86.2293       5 -86.2293
       6 -86.2293
 
 
 
 E-fermi :   8.2776     XC(G=0): -10.4219     alpha+bet :-13.6760

 val. band max:        8.0610708443   @ k =   0.0000   0.0000   0.0000
 cond. band min:       8.8981582203   @ k =   0.1667   0.1667   0.0000
 fundamental gap:      0.8370873760
 Fermi energy:         8.2775688479

 k-point     1 :       0.0000    0.0000    0.0000
  band No.  band energies     occupation 
      1     -52.7157      2.00000
      2     -52.7156      2.00000
      3     -26.8986      2.00000
      4     -26.8939      2.00000
      5     -26.7673      2.00000
      6     -26.7669      2.00000
      7     -26.7636      2.00000
      8     -26.7632      2.00000
      9      -4.9179      2.00000
     10      -4.5992      2.00000
     11      -4.0818      2.00000
     12      -3.5872      2.00000
     13       2.2308      2.00000
     14       3.5184      2.00000
     15       4.9668      2.00000
     16       6.3016      2.00000
     17       6.3018      2.00000
     18       6.3161      2.00000
     19       6.3163      2.00000
     20       7.0231      2.00000
     21       7.0688      2.00000
     22       7.0688      2.00000
     23       7.1024      2.00000
     24       7.1024      2.00000
     25       7.7239      2.00000
     26       8.0611      2.00000
     27      10.9891      0.00000
     28      10.9891      0.00000
     29      11.1193      0.00000
     30      11.1217      0.00000
     31      11.2052      0.00000

 k-point     2 :       0.1667    0.0000    0.0000
  band No.  band energies     occupation 
      1     -52.7132      2.00000
      2     -52.7131      2.00000
      3     -26.8894      2.00000
      4     -26.8876      2.00000
      5     -26.7981      2.00000
      6     -26.7978      2.00000
      7     -26.7717      2.00000
      8     -26.7693      2.00000
      9      -4.5330      2.00000
     10      -4.2214      2.00000
     11      -3.7954      2.00000
     12      -3.3375      2.00000
     13       2.6494      2.00000
     14       3.9043      2.00000
     15       4.7752      2.00000
     16       5.4688      2.00000
     17       5.5462      2.00000
     18       6.0146      2.00000
     19       6.5966      2.00000
     20       6.6088      2.00000
     21       6.6371      2.00000
     22       6.6670      2.00000
     23       6.8724      2.00000
     24       7.0909      2.00000
     25       7.6353      2.00000
     26       7.7887      2.00000
     27       9.8713      0.00000
     28      10.1464      0.00000
     29      10.1594      0.00000
     30      10.4065      0.00000
     31      10.4683      0.00000

 k-point     3 :       0.3333    0.0000    0.0000
  band No.  band energies     occupation 
      1     -52.7082      2.00000
      2     -52.7081      2.00000
      3     -26.8742      2.00000
      4     -26.8725      2.00000
      5     -26.8620      2.00000
      6     -26.8603      2.00000
      7     -26.7879      2.00000
      8     -26.7873      2.00000
      9      -3.5401      2.00000
     10      -3.2771      2.00000
     11      -3.0637      2.00000
     12      -2.7330      2.00000
     13       3.2028      2.00000
     14       3.5952      2.00000
     15       3.9596      2.00000
     16       4.0185      2.00000
     17       4.2636      2.00000
     18       4.8264      2.00000
     19       5.8916      2.00000
     20       5.9804      2.00000
     21       6.1036      2.00000
     22       6.7670      2.00000
     23       6.8083      2.00000
     24       7.0287      2.00000
     25       7.2229      2.00000
     26       7.3676      2.00000
     27       9.1960      0.00000
     28       9.5871      0.00000
     29       9.7831      0.00000
     30       9.8164      0.00000
     31      10.2408      0.00000

 k-point     4 :       0.5000   -0.0000    0.0000
  band No.  band energies     occupation 
      1     -52.7055      2.00000
      2     -52.7054      2.00000
      3     -26.8922      2.00000
      4     -26.8905      2.00000
      5     -26.8674      2.00000
      6     -26.8657      2.00000
      7     -26.7939      2.00000
      8     -26.7933      2.00000
      9      -2.7867      2.00000
     10      -2.6464      2.00000
     11      -2.5197      2.00000
     12      -2.3795      2.00000
     13       2.2805      2.00000
     14       2.5630      2.00000
     15       3.1767      2.00000
     16       3.2798      2.00000
     17       4.2043      2.00000
     18       4.9014      2.00000
     19       5.5936      2.00000
     20       5.6932      2.00000
     21       6.1141      2.00000
     22       6.2725      2.00000
     23       7.0921      2.00000
     24       7.1386      2.00000
     25       7.5134      2.00000
     26       7.7997      2.00000
     27       9.3703      0.00000
     28       9.4268      0.00000
     29       9.5434      0.00000
     30       9.8827      0.00000
     31      10.6740      0.00000

 k-point     5 :       0.1667    0.1667    0.0000
  band No.  band energies     occupation 
      1     -52.7094      2.00000
      2     -52.7094      2.00000
      3     -26.8782      2.00000
      4     -26.8781      2.00000
      5     -26.8383      2.00000
      6     -26.8383      2.00000
      7     -26.7908      2.00000
      8     -26.7906      2.00000
      9      -3.8356      2.00000
     10      -3.5508      2.00000
     11      -3.2784      2.00000
     12      -2.9005      2.00000
     13       3.2693      2.00000
     14       4.1377      2.00000
     15       4.4848      2.00000
     16       4.5735      2.00000
     17       4.7397      2.00000
     18       5.0188      2.00000
     19       5.2383      2.00000
     20       5.7068      2.00000
     21       6.4165      2.00000
     22       6.4427      2.00000
     23       6.9875      2.00000
     24       7.2583      2.00000
     25       7.2782      2.00000
     26       7.4329      2.00000
     27       8.8982      0.00000
     28       9.6398      0.00000
     29       9.6626      0.00000
     30       9.6872      0.00000
     31      10.0329      0.00000

 k-point     6 :       0.3333    0.1667    0.0000
  band No.  band energies     occupation 
      1     -52.7055      2.00000
      2     -52.7055      2.00000
      3     -26.8762      2.00000
      4     -26.8754      2.00000
      5     -26.8676      2.00000
      6     -26.8661      2.00000
      7     -26.8109      2.00000
      8     -26.8089      2.00000
      9      -2.8518      2.00000
     10      -2.6785      2.00000
     11      -2.5589      2.00000
     12      -2.3664      2.00000
     13       2.8687      2.00000
     14       3.0839      2.00000
     15       3.5196      2.00000
     16       3.5715      2.00000
     17       4.3534      2.00000
     18       4.9499      2.00000
     19       4.9548      2.00000
     20       5.3152      2.00000
     21       5.6532      2.00000
     22       5.9485      2.00000
     23       6.3062      2.00000
     24       6.5592      2.00000
     25       7.5293      2.00000
     26       7.7145      2.00000
     27       9.1249      0.00000
     28       9.5933      0.00000
     29       9.6828      0.00000
     30       9.8326      0.00000
     31       9.9790      0.00000

 k-point     7 :       0.3333    0.3333    0.0000
  band No.  band energies     occupation 
      1     -52.7043      2.00000
      2     -52.7043      2.00000
      3     -26.8638      2.00000
      4     -26.8638      2.00000
      5     -26.8617      2.00000
      6     -26.8617      2.00000
      7     -26.8460      2.00000
      8     -26.8448      2.00000
      9      -2.4006      2.00000
     10      -2.4006      2.00000
     11      -2.2083      2.00000
     12      -2.2083      2.00000
     13       3.2353      2.00000
     14       3.4287      2.00000
     15       3.4287      2.00000
     16       3.4748      2.00000
     17       3.8988      2.00000
     18       4.2240      2.00000
     19       4.7380      2.00000
     20       4.7380      2.00000
     21       4.9982      2.00000
     22       4.9982      2.00000
     23       6.2525      2.00000
     24       6.2525      2.00000
     25       7.7946      2.00000
     26       8.0320      2.00000
     27       9.0788      0.00000
     28       9.0788      0.00000
     29       9.2344      0.00000
     30      10.2242      0.00000
     31      10.3868      0.00000

 k-point     8 :       0.0000   -0.0000    0.5000
  band No.  band energies     occupation 
      1     -52.7155      2.00000
      2     -52.7155      2.00000
      3     -26.8937      2.00000
      4     -26.8937      2.00000
      5     -26.7637      2.00000
      6     -26.7637      2.00000
      7     -26.7633      2.00000
      8     -26.7633      2.00000
      9      -4.7962      2.00000
     10      -4.7962      2.00000
     11      -3.8000      2.00000
     12      -3.8000      2.00000
     13       2.7239      2.00000
     14       2.7239      2.00000
     15       6.0428      2.00000
     16       6.0428      2.00000
     17       6.3091      2.00000
     18       6.3091      2.00000
     19       6.3092      2.00000
     20       6.3092      2.00000
     21       7.0867      2.00000
     22       7.0867      2.00000
     23       7.0867      2.00000
     24       7.0867      2.00000
     25       7.9780      2.00000
     26       7.9780      2.00000
     27      11.0259      0.00000
     28      11.0259      0.00000
     29      11.0259      0.00000
     30      11.0259      0.00000
     31      11.3585      0.00000

 k-point     9 :       0.1667    0.0000    0.5000
  band No.  band energies     occupation 
      1     -52.7131      2.00000
      2     -52.7131      2.00000
      3     -26.8876      2.00000
      4     -26.8876      2.00000
      5     -26.7965      2.00000
      6     -26.7965      2.00000
      7     -26.7724      2.00000
      8     -26.7724      2.00000
      9      -4.4164      2.00000
     10      -4.4164      2.00000
     11      -3.5294      2.00000
     12      -3.5294      2.00000
     13       3.1039      2.00000
     14       3.1039      2.00000
     15       5.4626      2.00000
     16       5.4626      2.00000
     17       5.6711      2.00000
     18       5.6712      2.00000
     19       6.6007      2.00000
     20       6.6007      2.00000
     21       6.6533      2.00000
     22       6.6533      2.00000
     23       6.9265      2.00000
     24       6.9265      2.00000
     25       7.6794      2.00000
     26       7.6794      2.00000
     27      10.0286      0.00000
     28      10.0286      0.00000
     29      10.2848      0.00000
     30      10.2848      0.00000
     31      10.5947      0.00000

 k-point    10 :       0.3333    0.0000    0.5000
  band No.  band energies     occupation 
      1     -52.7081      2.00000
      2     -52.7081      2.00000
      3     -26.8744      2.00000
      4     -26.8744      2.00000
      5     -26.8597      2.00000
      6     -26.8597      2.00000
      7     -26.7867      2.00000
      8     -26.7867      2.00000
      9      -3.4472      2.00000
     10      -3.4472      2.00000
     11      -2.8602      2.00000
     12      -2.8602      2.00000
     13       3.3916      2.00000
     14       3.3916      2.00000
     15       3.9104      2.00000
     16       3.9104      2.00000
     17       4.6314      2.00000
     18       4.6314      2.00000
     19       5.9336      2.00000
     20       5.9336      2.00000
     21       6.3475      2.00000
     22       6.3475      2.00000
     23       6.9905      2.00000
     24       6.9905      2.00000
     25       7.2979      2.00000
     26       7.2979      2.00000
     27       9.4512      0.00000
     28       9.4512      0.00000
     29       9.6864      0.00000
     30       9.6864      0.00000
     31      10.8338      0.00000

 k-point    11 :       0.5000   -0.0000    0.5000
  band No.  band energies     occupation 
      1     -52.7055      2.00000
      2     -52.7055      2.00000
      3     -26.8918      2.00000
      4     -26.8918      2.00000
      5     -26.8667      2.00000
      6     -26.8667      2.00000
      7     -26.7938      2.00000
      8     -26.7938      2.00000
      9      -2.7341      2.00000
     10      -2.7341      2.00000
     11      -2.4321      2.00000
     12      -2.4321      2.00000
     13       2.4148      2.00000
     14       2.4148      2.00000
     15       3.1963      2.00000
     16       3.1963      2.00000
     17       4.5964      2.00000
     18       4.5964      2.00000
     19       5.6413      2.00000
     20       5.6413      2.00000
     21       6.1601      2.00000
     22       6.1601      2.00000
     23       7.1316      2.00000
     24       7.1316      2.00000
     25       7.6552      2.00000
     26       7.6552      2.00000
     27       9.3941      0.00000
     28       9.3941      0.00000
     29       9.7289      0.00000
     30       9.7289      0.00000
     31      11.1113      0.00000

 k-point    12 :       0.1667    0.1667    0.5000
  band No.  band energies     occupation 
      1     -52.7093      2.00000
      2     -52.7093      2.00000
      3     -26.8768      2.00000
      4     -26.8768      2.00000
      5     -26.8374      2.00000
      6     -26.8374      2.00000
      7     -26.7887      2.00000
      8     -26.7887      2.00000
      9      -3.7334      2.00000
     10      -3.7334      2.00000
     11      -3.0502      2.00000
     12      -3.0502      2.00000
     13       3.6021      2.00000
     14       3.6021      2.00000
     15       4.4768      2.00000
     16       4.4768      2.00000
     17       5.0362      2.00000
     18       5.0362      2.00000
     19       5.5130      2.00000
     20       5.5130      2.00000
     21       6.4319      2.00000
     22       6.4319      2.00000
     23       7.0128      2.00000
     24       7.0128      2.00000
     25       7.3846      2.00000
     26       7.3846      2.00000
     27       9.1927      0.00000
     28       9.1927      0.00000
     29       9.7999      0.00000
     30       9.7999      0.00000
     31      10.2122      0.00000

 k-point    13 :       0.3333    0.1667    0.5000
  band No.  band energies     occupation 
      1     -52.7055      2.00000
      2     -52.7055      2.00000
      3     -26.8761      2.00000
      4     -26.8761      2.00000
      5     -26.8675      2.00000
      6     -26.8675      2.00000
      7     -26.8106      2.00000
      8     -26.8106      2.00000
      9      -2.7904      2.00000
     10      -2.7904      2.00000
     11      -2.4374      2.00000
     12      -2.4374      2.00000
     13       2.9789      2.00000
     14       2.9789      2.00000
     15       3.5200      2.00000
     16       3.5200      2.00000
     17       4.5608      2.00000
     18       4.5608      2.00000
     19       5.2672      2.00000
     20       5.2672      2.00000
     21       5.8393      2.00000
     22       5.8393      2.00000
     23       6.3507      2.00000
     24       6.3507      2.00000
     25       7.6213      2.00000
     26       7.6213      2.00000
     27       9.3691      0.00000
     28       9.3691      0.00000
     29       9.7110      0.00000
     30       9.7110      0.00000
     31      10.3344      0.00000

 k-point    14 :       0.3333    0.3333    0.5000
  band No.  band energies     occupation 
      1     -52.7043      2.00000
      2     -52.7043      2.00000
      3     -26.8639      2.00000
      4     -26.8639      2.00000
      5     -26.8621      2.00000
      6     -26.8621      2.00000
      7     -26.8466      2.00000
      8     -26.8466      2.00000
      9      -2.4005      2.00000
     10      -2.4005      2.00000
     11      -2.2085      2.00000
     12      -2.2085      2.00000
     13       3.3295      2.00000
     14       3.3295      2.00000
     15       3.4548      2.00000
     16       3.4548      2.00000
     17       4.0863      2.00000
     18       4.0863      2.00000
     19       4.4889      2.00000
     20       4.4889      2.00000
     21       5.3598      2.00000
     22       5.3598      2.00000
     23       6.0955      2.00000
     24       6.0955      2.00000
     25       7.8889      2.00000
     26       7.8889      2.00000
     27       9.0867      0.00000
     28       9.0867      0.00000
     29       9.6905      0.00000
     30       9.6905      0.00000
     31      10.4587      0.00000


--------------------------------------------------------------------------------------------------------


 soft charge-density along one line, spin component           1
         0         1         2         3         4         5         6         7         8         9
 total charge-density along one line
 
 pseudopotential strength for first ion, spin component:           1
 -5.317  10.898   0.000   0.000  -0.000  -0.000  -0.000   0.000
 10.898   3.292  -0.000  -0.000   0.000   0.000   0.000  -0.000
  0.000  -0.000 -17.586  -0.000  -0.000   8.322   0.000   0.000
  0.000  -0.000  -0.000 -17.591  -0.000   0.000   8.328   0.000
 -0.000   0.000  -0.000  -0.000 -17.586   0.000   0.000   8.322
 -0.000   0.000   8.322   0.000   0.000   6.090  -0.000  -0.000
 -0.000   0.000   0.000   8.328   0.000  -0.000   6.086  -0.000
  0.000  -0.000   0.000   0.000   8.322  -0.000  -0.000   6.090
 -0.000   0.000  -0.000   0.000   0.008   0.000  -0.000  -0.003
 -0.000   0.000  -0.000   0.000   0.000   0.000  -0.000  -0.000
 -0.002   0.002  -0.000  -0.000   0.000   0.000  -0.000  -0.000
 -0.000   0.000   0.000  -0.000   0.000  -0.000   0.000  -0.000
  0.000  -0.000   0.008   0.000  -0.000  -0.003  -0.000   0.000
 -0.000   0.000  -0.000   0.000   0.008   0.000  -0.000  -0.003
 -0.000   0.000  -0.000   0.000   0.000   0.000  -0.000  -0.000
 -0.003   0.002  -0.000  -0.000   0.000   0.000  -0.000  -0.000
 -0.000   0.000   0.000  -0.000   0.000  -0.000   0.000  -0.000
  0.000  -0.000   0.008   0.000  -0.000  -0.003  -0.000   0.000
 total augmentation occupancy for first ion, spin component:           1
  1.996  -0.026   0.000   0.000  -0.000   0.000   0.000   0.000   0.000   0.000  -0.008   0.000  -0.000  -0.000  -0.000   0.007
 -0.026   1.047   0.000  -0.000   0.000   0.000  -0.000   0.000   0.000   0.000  -0.157   0.000  -0.000  -0.000  -0.000   0.274
 -0.000   0.000   2.003   0.000   0.000  -0.024  -0.000  -0.000   0.000  -0.000   0.000   0.000   0.020  -0.000   0.000  -0.000
 -0.000  -0.000   0.000   2.003   0.000  -0.000  -0.029  -0.000   0.000  -0.000  -0.000   0.000   0.000  -0.000   0.000   0.000
 -0.000   0.000   0.000   0.000   2.003  -0.000  -0.000  -0.024   0.020   0.000  -0.000   0.000   0.000  -0.009  -0.000   0.000
  0.000   0.000  -0.024  -0.000  -0.000   0.071   0.000   0.000   0.000  -0.000   0.000   0.000   0.100  -0.000   0.000  -0.000
  0.000   0.000  -0.000  -0.029  -0.000   0.000   0.095   0.000   0.000  -0.000  -0.000   0.000   0.000  -0.000   0.000   0.000
 -0.000  -0.000  -0.000  -0.000  -0.024   0.000   0.000   0.071   0.100   0.000  -0.000   0.000   0.000  -0.135  -0.000   0.000
  0.000   0.000   0.000   0.000   0.020   0.000   0.000   0.100   1.267   0.000  -0.000   0.000  -0.000  -1.354  -0.000   0.000
  0.000   0.000  -0.000  -0.000   0.000  -0.000  -0.000   0.000   0.000   2.039   0.000   0.000  -0.000  -0.000  -2.645  -0.000
 -0.008  -0.157   0.000  -0.000  -0.000   0.000  -0.000  -0.000  -0.000   0.000   1.076   0.000   0.000   0.000  -0.000  -1.158
  0.000   0.000   0.000   0.000   0.000   0.000   0.000   0.000   0.000   0.000   0.000   2.039   0.000  -0.000  -0.000  -0.000
 -0.000  -0.000   0.020   0.000   0.000   0.100   0.000   0.000  -0.000  -0.000   0.000   0.000   1.267   0.000   0.000  -0.000
 -0.000  -0.000  -0.000  -0.000  -0.009  -0.000  -0.000  -0.135  -1.354  -0.000   0.000  -0.000   0.000   2.273   0.000  -0.000
 -0.000  -0.000   0.000   0.000  -0.000   0.000   0.000  -0.000  -0.000  -2.645  -0.000  -0.000   0.000   0.000   4.011   0.000
  0.007   0.274  -0.000   0.000   0.000  -0.000   0.000   0.000   0.000  -0.000  -1.158  -0.000  -0.000  -0.000   0.000   2.064
 -0.000  -0.000  -0.000  -0.000  -0.000  -0.000  -0.000  -0.000  -0.000  -0.000  -0.000  -2.645  -0.000   0.000   0.000   0.000
  0.000   0.000  -0.009  -0.000  -0.000  -0.135  -0.000  -0.000   0.000   0.000  -0.000  -0.000  -1.354  -0.000  -0.000   0.000


------------------------ aborting loop because EDIFF is reached ----------------------------------------


    CHARGE:  cpu time      0.0041: real time      0.0042
    FORLOC:  cpu time      0.0010: real time      0.0010
    FORNL :  cpu time      0.0118: real time      0.0120
    STRESS:  cpu time      0.0428: real time      0.0431
    FORCOR:  cpu time      0.0122: real time      0.0122
    FORHAR:  cpu time      0.0031: real time      0.0031
    MIXING:  cpu time      0.0012: real time      0.0012
    OFIELD:  cpu time      0.0000: real time      0.0000

 ---------------------------------------------------------------------------------------------

         DFTD3 V3.0 Rev 1        
 DF pbe       
 parameters
 rs18     =    1.0000
 alpha6   =   14.0000
 alpha8   =   16.0000
 k1-k3    =   16.0000    1.3333   -4.0000
 Edisp (eV)   -1.98274

 E6    (eV) :    -0.8616
 E8    (eV) :    -1.1212
 % E8        : 56.55
    FORVDW:  cpu time      0.0215: real time      0.0611

  FORCE on cell =-STRESS in cart. coord.  units (eV):
  Direction    XX          YY          ZZ          XY          YZ          ZX
  --------------------------------------------------------------------------------------
  Alpha Z    96.92263    96.92263    96.92263
  Ewald    -400.53808  -400.53809 -2118.05397    -0.00001     0.00010     0.00009
  Hartree  1058.29176  1058.29176  -484.03117    -0.00000     0.00017     0.00014
  E(xc)    -230.32343  -230.32329  -231.01623     0.00013     0.00001     0.00001
  Local   -1587.85381 -1587.85080  1660.07766     0.00260     0.00063     0.00026
  n-local   382.92118   379.70597   401.19614    -2.46881    -0.00002    -0.00002
  augment   -35.27267   -35.27314   -39.97137    -0.00041    -0.00017    -0.00010
  Kinetic   715.88231   719.70557   715.19220   -10.42172    -0.00003     0.00006
  Fock        0.00000     0.00000     0.00000     0.00000     0.00000     0.00000
  vdW        -2.12918    -2.12918    -2.09005     0.00000     0.00000     0.00000
  -------------------------------------------------------------------------------------
  Total      -1.79394    -1.79394    -1.77417    -0.00000    -0.00000    -0.00000
  in kB     -19.09331   -19.09331   -18.88286    -0.00000    -0.00000    -0.00000
  external pressure =      -19.02 kB  Pullay stress =        0.00 kB


 VOLUME and BASIS-vectors are now :
 -----------------------------------------------------------------------------
  energy-cutoff  :      242.68
  volume of cell :      150.53
      direct lattice vectors                 reciprocal lattice vectors
     3.518981221  0.000000067  0.000000291     0.284173153  0.164067440  0.000000000
    -1.759490562  3.047527159  0.000000144    -0.000000006  0.328134890  0.000000000
     0.000000000  0.000000000 14.036945769    -0.000000006 -0.000000007  0.071240569

  length of vectors
     3.518981221  3.518981220 14.036945769     0.328134890  0.328134890  0.071240569


 FORCES acting on ions
    electron-ion (+dipol)            ewald-force                    non-local-force                 convergence-correction
 -----------------------------------------------------------------------------------------------
   -.377E-04 0.110E-03 -.909E-06   -.464E-05 0.323E-05 0.250E-05   -.451E-16 0.208E-16 0.953E-21   0.495E-06 -.283E-06 -.417E-06
   0.157E-03 -.662E-04 -.173E-04   0.464E-05 -.323E-05 -.250E-05   0.243E-16 0.104E-15 -.761E-21   -.492E-06 0.285E-06 0.375E-06
   -.243E-04 -.894E-04 0.283E+03   0.285E-04 0.369E-04 -.288E+03   0.304E-17 -.252E-16 0.517E+01   0.326E-08 -.213E-08 0.108E-02
   0.322E-04 0.102E-03 -.283E+03   -.285E-04 -.369E-04 0.288E+03   -.104E-16 0.182E-16 -.517E+01   -.339E-08 0.218E-08 -.108E-02
   -.624E-04 -.624E-04 0.283E+03   0.332E-04 0.337E-04 -.288E+03   -.781E-17 0.113E-16 0.517E+01   -.353E-08 0.179E-08 0.107E-02
   0.917E-04 0.623E-04 -.283E+03   -.332E-04 -.337E-04 0.288E+03   0.434E-18 -.182E-16 -.517E+01   0.362E-08 -.187E-08 -.107E-02
 -----------------------------------------------------------------------------------------------
   0.157E-03 0.562E-04 -.257E-04   0.138E-13 0.189E-13 0.568E-13   -.356E-16 0.111E-15 0.888E-15   0.328E-08 0.144E-08 -.401E-07
 
 
 POSITION                                       TOTAL-FORCE (eV/Angst)
 -----------------------------------------------------------------------------------
      0.00000      2.03168      3.50924         0.000000     -0.000000      0.000000
      1.75949      1.01584     10.52771        -0.000000      0.000000      0.000000
     -0.00000      2.03168      8.71338        -0.000000      0.000000     -0.001565
      1.75949      1.01584      5.32357         0.000000      0.000000      0.001565
      1.75949      1.01584      1.69490         0.000000     -0.000000     -0.001565
     -0.00000      2.03168     12.34204         0.000000     -0.000000      0.001565
 -----------------------------------------------------------------------------------
    total drift:                                0.000157      0.000056     -0.000026


--------------------------------------------------------------------------------------------------------



  FREE ENERGIE OF THE ION-ELECTRON SYSTEM (eV)
  ---------------------------------------------------
  free  energy   TOTEN  =       -37.94236570 eV

  energy  without entropy=      -37.94236570  energy(sigma->0) =      -37.94236570
 


--------------------------------------------------------------------------------------------------------


    POTLOK:  cpu time      0.0645: real time      0.0650


--------------------------------------------------------------------------------------------------------


 writing wavefunctions
     LOOP+:  cpu time      1.7097: real time      1.8713
    4ORBIT:  cpu time      0.0000: real time      0.0000

 total amount of memory used by VASP MPI-rank0    41866. kBytes
=======================================================================

   base                                    :      30000. kBytes
   nonl-proj                               :       2720. kBytes
   fftplans                                :       1604. kBytes
   grid                                    :       2615. kBytes
   one-center                              :         46. kBytes
   wavefun                                 :       4881. kBytes
 
  
  
 General timing and accounting informations for this job:
 ========================================================
  
                  Total CPU time used (sec):        2.333
                            User time (sec):        1.255
                          System time (sec):        1.078
                         Elapsed time (sec):        2.873
  
                   Maximum memory used (kb):      234048.
                   Average memory used (kb):          N/A
  
                          Minor page faults:        22019
                          Major page faults:           74
                 Voluntary context switches:          371
