<?xml version="1.0" encoding="ISO-8859-1"?>
<modeling>
 <generator>
  <i name="program" type="string">vasp </i>
  <i name="version" type="string">6.5.1  </i>
  <i name="subversion" type="string">10Mar25 (build Jul 04 2025 14:44:13) complex                          parallel </i>
  <i name="platform" type="string">LinuxIFC </i>
  <i name="date" type="string">2025 09 30 </i>
  <i name="time" type="string">16:54:53 </i>
 </generator>
 <incar>
  <i type="string" name="SYSTEM">bulk MoTe2</i>
  <i name="EDIFF">      0.00000100</i>
  <i type="int" name="ISMEAR">     0</i>
  <i name="SIGMA">      0.05000000</i>
  <i type="int" name="LMAXMIX">     4</i>
  <i type="logical" name="LASPH"> T  </i>
  <i type="int" name="IVDW">    11</i>
 </incar>
 <primitive_cell>
  <structure name="primitive_cell" >
   <crystal>
    <varray name="basis" >
     <v>       3.51898122       0.00000007       0.00000029 </v>
     <v>      -1.75949056       3.04752716       0.00000014 </v>
     <v>       0.00000000       0.00000000      14.03694577 </v>
    </varray>
    <i name="volume">    150.53488694 </i>
    <varray name="rec_basis" >
     <v>       0.28417315       0.16406744       0.00000000 </v>
     <v>      -0.00000001       0.32813489       0.00000000 </v>
     <v>      -0.00000001      -0.00000001       0.07124057 </v>
    </varray>
   </crystal>
   <varray name="positions" >
    <v>       0.33333333       0.66666665       0.25000000 </v>
    <v>       0.66666664       0.33333335       0.75000000 </v>
    <v>       0.33333329       0.66666668       0.62074578 </v>
    <v>       0.66666668       0.33333332       0.37925422 </v>
    <v>       0.66666665       0.33333331       0.12074578 </v>
    <v>       0.33333332       0.66666669       0.87925422 </v>
   </varray>
  </structure>
  <varray name="primitive_index" >
   <v type="int" >        1 </v>
   <v type="int" >        2 </v>
   <v type="int" >        3 </v>
   <v type="int" >        4 </v>
   <v type="int" >        5 </v>
   <v type="int" >        6 </v>
  </varray>
 </primitive_cell>
 <kpoints>
  <generation param="Gamma">
   <v type="int" name="divisions">       6        6        2 </v>
   <v name="usershift">      0.00000000       0.00000000       0.00000000 </v>
   <v name="genvec1">      0.16666667       0.00000000       0.00000000 </v>
   <v name="genvec2">      0.00000000       0.16666667       0.00000000 </v>
   <v name="genvec3">      0.00000000      -0.00000000       0.50000000 </v>
   <v name="shift">      0.00000000       0.00000000       0.00000000 </v>
  </generation>
  <varray name="kpointlist" >
   <v>       0.00000000       0.00000000       0.00000000 </v>
   <v>       0.16666667       0.00000000       0.00000000 </v>
   <v>       0.33333333       0.00000000       0.00000000 </v>
   <v>       0.50000000      -0.00000000       0.00000000 </v>
   <v>       0.16666667       0.16666667       0.00000000 </v>
   <v>       0.33333333       0.16666667       0.00000000 </v>
   <v>       0.33333333       0.33333333       0.00000000 </v>
   <v>       0.00000000      -0.00000000       0.50000000 </v>
   <v>       0.16666667       0.00000000       0.50000000 </v>
   <v>       0.33333333       0.00000000       0.50000000 </v>
   <v>       0.50000000      -0.00000000       0.50000000 </v>
   <v>       0.16666667       0.16666667       0.50000000 </v>
   <v>       0.33333333       0.16666667       0.50000000 </v>
   <v>       0.33333333       0.33333333       0.50000000 </v>
  </varray>
  <varray name="weights" >
   <v>       0.01388889 </v>
   <v>       0.08333333 </v>
   <v>       0.08333333 </v>
   <v>       0.04166667 </v>
   <v>       0.08333333 </v>
   <v>       0.16666667 </v>
   <v>       0.02777778 </v>
   <v>       0.01388889 </v>
   <v>       0.08333333 </v>
   <v>       0.08333333 </v>
   <v>       0.04166667 </v>
   <v>       0.08333333 </v>
   <v>       0.16666667 </v>
   <v>       0.02777778 </v>
  </varray>
 </kpoints>
 <parameters>
  <separator name="general" >
   <i type="string" name="SYSTEM">bulk MoTe2</i>
   <i type="logical" name="LCOMPAT"> F  </i>
  </separator>
  <separator name="electronic" >
   <i type="string" name="PREC">normal</i>
   <i name="ENMAX">    242.67600000</i>
   <i name="ENAUG">    446.01400000</i>
   <i name="EDIFF">      0.00000100</i>
   <i type="int" name="IALGO">    38</i>
   <i type="int" name="IWAVPR">    10</i>
   <i type="int" name="NBANDS">    31</i>
   <i type="int" name="NBANDSLOW">    -1</i>
   <i type="int" name="NBANDSHIGH">    -1</i>
   <i name="NELECT">     52.00000000</i>
   <i type="int" name="TURBO">     0</i>
   <i type="int" name="IRESTART">     0</i>
   <i type="int" name="NREBOOT">     0</i>
   <i type="int" name="NMIN">     0</i>
   <i name="EREF">      0.00000000</i>
   <separator name="electronic smearing" >
    <i type="int" name="ISMEAR">     0</i>
    <i name="SIGMA">      0.05000000</i>
    <i name="KSPACING">      0.50000000</i>
    <i type="logical" name="KGAMMA"> T  </i>
    <i type="logical" name="KBLOWUP"> T  </i>
   </separator>
   <separator name="electronic projectors" >
    <i type="logical" name="LREAL"> F  </i>
    <v name="ROPT">      0.00000000      0.00000000</v>
    <i type="int" name="LMAXPAW">  -100</i>
    <i type="int" name="LMAXMIX">     4</i>
    <i type="logical" name="NLSPLINE"> F  </i>
   </separator>
   <separator name="electronic startup" >
    <i type="int" name="ISTART">     0</i>
    <i type="int" name="ICHARG">     2</i>
    <i type="int" name="INIWAV">     1</i>
   </separator>
   <separator name="electronic spin" >
    <i type="int" name="ISPIN">     1</i>
    <i type="logical" name="LNONCOLLINEAR"> F  </i>
    <v name="MAGMOM">      1.00000000      1.00000000      1.00000000      1.00000000      1.00000000      1.00000000</v>
    <i name="NUPDOWN">     -1.00000000</i>
    <i type="logical" name="LSORBIT"> F  </i>
    <v name="SAXIS">      0.00000000      0.00000000      1.00000000</v>
    <i type="logical" name="LSPIRAL"> F  </i>
    <v name="QSPIRAL">      0.00000000      0.00000000      0.00000000</v>
    <i type="logical" name="LZEROZ"> F  </i>
   </separator>
   <separator name="electronic exchange-correlation" >
    <i type="logical" name="LASPH"> T  </i>
   </separator>
   <separator name="electronic convergence" >
    <i type="int" name="NELM">    60</i>
    <i type="int" name="NELMDL">    -5</i>
    <i type="int" name="NELMIN">     2</i>
    <i name="ENINI">    242.67600000</i>
    <separator name="electronic convergence detail" >
     <i type="logical" name="LDIAG"> T  </i>
     <i type="logical" name="LSUBROT"> F  </i>
     <i type="logical" name="LROBUST"> F  </i>
     <i type="int" name="ISEARCH">     0</i>
     <i name="WEIMIN">      0.00000000</i>
     <i name="EBREAK">      0.00000001</i>
     <i name="DEPER">      0.30000000</i>
     <i type="int" name="NRMM">     4</i>
     <i name="TIME">      0.40000000</i>
    </separator>
   </separator>
   <separator name="electronic mixer" >
    <i name="AMIX">      0.40000000</i>
    <i name="BMIX">      1.00000000</i>
    <i name="AMIN">      0.10000000</i>
    <i name="AMIX_MAG">      1.60000000</i>
    <i name="BMIX_MAG">      1.00000000</i>
    <separator name="electronic mixer details" >
     <i type="int" name="IMIX">     4</i>
     <i type="logical" name="MIXFIRST"> F  </i>
     <i type="int" name="MAXMIX">   -45</i>
     <i name="WC">    100.00000000</i>
     <i type="int" name="INIMIX">     1</i>
     <i type="int" name="MIXPRE">     1</i>
     <i type="int" name="MREMOVE">     5</i>
    </separator>
   </separator>
   <separator name="electronic dipolcorrection" >
    <i type="logical" name="LDIPOL"> F  </i>
    <i type="logical" name="LMONO"> F  </i>
    <i type="int" name="IDIPOL">     0</i>
    <i name="EPSILON">      1.00000000</i>
    <v name="DIPOL">   -100.00000000   -100.00000000   -100.00000000</v>
    <i name="EFIELD">      0.00000000</i>
    <i type="logical" name="LVACPOTAV"> F  </i>
   </separator>
  </separator>
  <separator name="grids" >
   <i type="int" name="NGX">    14</i>
   <i type="int" name="NGY">    14</i>
   <i type="int" name="NGZ">    54</i>
   <i type="int" name="NGXF">    28</i>
   <i type="int" name="NGYF">    28</i>
   <i type="int" name="NGZF">   108</i>
   <i type="logical" name="ADDGRID"> F  </i>
  </separator>
  <separator name="ionic" >
   <i type="int" name="NSW">     0</i>
   <i type="int" name="IBRION">    -1</i>
   <i type="int" name="MDALGO">     0</i>
   <i type="int" name="ISIF">     2</i>
   <i name="PSTRESS">      0.00000000</i>
   <i name="EDIFFG">      0.00001000</i>
   <i type="int" name="NFREE">     0</i>
   <i name="POTIM">      0.50000000</i>
   <i name="SMASS">     -3.00000000</i>
   <i name="SCALEE">      1.00000000</i>
  </separator>
  <separator name="ionic md" >
   <i name="TEBEG">      0.00010000</i>
   <i name="TEEND">      0.00010000</i>
   <i type="int" name="NBLOCK">     1</i>
   <i type="int" name="KBLOCK">     1</i>
   <i type="int" name="NPACO">   256</i>
   <i name="APACO">     10.00000000</i>
  </separator>
  <separator name="symmetry" >
   <i type="int" name="ISYM">     2</i>
   <i name="SYMPREC">      0.00001000</i>
  </separator>
  <separator name="dos" >
   <i type="int" name="LORBIT">     0</i>
   <v name="RWIGS">     -1.00000000     -1.00000000</v>
   <i type="int" name="NEDOS">   301</i>
   <i name="EMIN">     10.00000000</i>
   <i name="EMAX">    -10.00000000</i>
   <i name="EFERMI">      0.00000000</i>
  </separator>
  <separator name="writing" >
   <i type="int" name="NWRITE">     2</i>
   <i type="logical" name="LWAVE"> T  </i>
   <i type="logical" name="LDOWNSAMPLE"> F  </i>
   <i type="logical" name="LCHARG"> T  </i>
   <i type="logical" name="LPARD"> F  </i>
   <i type="logical" name="LVTOT"> F  </i>
   <i type="logical" name="LVHAR"> F  </i>
   <i type="logical" name="LELF"> F  </i>
   <i type="logical" name="LOPTICS"> F  </i>
   <v name="STM">      0.00000000      0.00000000      0.00000000      0.00000000      0.00000000      0.00000000      0.00000000</v>
  </separator>
  <separator name="performance" >
   <i type="int" name="NPAR">     1</i>
   <i type="int" name="NSIM">     4</i>
   <i type="int" name="NBLK">    -1</i>
   <i type="logical" name="LPLANE"> T  </i>
   <i type="logical" name="LSCALAPACK"> T  </i>
   <i type="logical" name="LSCAAWARE"> F  </i>
   <i type="logical" name="LSCALU"> F  </i>
   <i type="logical" name="LASYNC"> F  </i>
   <i type="logical" name="LORBITALREAL"> F  </i>
  </separator>
  <separator name="miscellaneous" >
   <i type="int" name="IDIOT">     3</i>
   <i type="int" name="PHON_NSTRUCT">    -1</i>
   <i type="logical" name="LMUSIC"> F  </i>
   <v name="POMASS">     95.94000000    127.60000000</v>
   <v name="DARWINR">      0.00000000      0.00000000</v>
   <v name="DARWINV">      1.00000000      1.00000000</v>
   <i type="logical" name="LCORR"> T  </i>
  </separator>
  <i type="logical" name="GGA_COMPAT"> T  </i>
  <i type="logical" name="LBERRY"> F  </i>
  <i type="int" name="ICORELEVEL">     0</i>
  <i type="logical" name="LDAU"> F  </i>
  <i type="int" name="I_CONSTRAINED_M">     0</i>
  <separator name="electronic exchange-correlation" >
   <i type="string" name="GGA    ">PE</i>
   <i type="string" name="XC_C">1</i>
   <i type="int" name="VOSKOWN">     0</i>
   <i type="logical" name="LHFCALC"> F  </i>
   <i type="string" name="PRECFOCK"></i>
   <i type="logical" name="LSYMGRAD"> F  </i>
   <i type="logical" name="LHFONE"> F  </i>
   <i type="logical" name="LRHFCALC"> F  </i>
   <i type="logical" name="LTHOMAS"> F  </i>
   <i type="logical" name="LMODELHF"> F  </i>
   <i type="logical" name="LFOCKACE"> F  </i>
   <i name="ENCUT4O">     -1.00000000</i>
   <i type="int" name="EXXOEP">     0</i>
   <i type="int" name="FOURORBIT">     0</i>
   <i name="AEXX">      0.00000000</i>
   <i name="HFALPHA">      0.00000000</i>
   <i name="MCALPHA">      0.00000000</i>
   <i name="ALDAX">      1.00000000</i>
   <i name="AGGAX">      1.00000000</i>
   <i name="AMGGAX">      1.00000000</i>
   <i name="ALDAC">      1.00000000</i>
   <i name="AGGAC">      1.00000000</i>
   <i name="AMGGAC">      1.00000000</i>
   <i type="int" name="NKREDX">     1</i>
   <i type="int" name="NKREDY">     1</i>
   <i type="int" name="NKREDZ">     1</i>
   <i type="logical" name="SHIFTRED"> F  </i>
   <i type="logical" name="ODDONLY"> F  </i>
   <i type="logical" name="EVENONLY"> F  </i>
   <i type="int" name="LMAXFOCK">     0</i>
   <i type="int" name="NMAXFOCKAE">     0</i>
   <i type="logical" name="LFOCKAEDFT"> F  </i>
   <i name="HFSCREEN">      0.00000000</i>
   <i name="HFSCREENC">      0.00000000</i>
   <i type="int" name="NBANDSGWLOW">     0</i>
  </separator>
  <separator name="vdW DFT" >
   <i type="logical" name="LUSE_VDW"> F  </i>
   <i type="int" name="IVDW_NL">    -1</i>
   <i type="logical" name="LSPIN_VDW"> F  </i>
   <i name="ZAB_VDW">     -0.84910000</i>
   <i name="GAMMA_VDW">      1.39626340</i>
   <i name="ALPHA_VDW">      0.00000000</i>
   <i name="PARAM1">      0.12340000</i>
   <i name="PARAM2">      1.00000000</i>
   <i name="BPARAM">      6.30000000</i>
   <i name="CPARAM">      0.00930000</i>
  </separator>
  <separator name="model GW" >
   <i type="int" name="MODEL_GW">     0</i>
   <i name="MODEL_EPS0">     15.05348869</i>
   <i name="MODEL_ALPHA">      1.00000000</i>
  </separator>
  <separator name="linear response parameters" >
   <i type="logical" name="LEPSILON"> F  </i>
   <i type="logical" name="LRPA"> F  </i>
   <i type="logical" name="LNABLA"> F  </i>
   <i type="logical" name="LVEL"> F  </i>
   <i name="CSHIFT">      0.10000000</i>
   <i name="OMEGAMAX">     -1.00000000</i>
   <i name="DEG_THRESHOLD">      0.00200000</i>
   <i name="RTIME">     -0.10000000</i>
   <i name="WPLASMAI">      0.00000000</i>
   <v name="DFIELD">      0.00000000      0.00000000      0.00000000</v>
   <v name="WPLASMA">      0.00000000      0.00000000      0.00000000      0.00000000      0.00000000      0.00000000      0.00000000      0.00000000      0.00000000</v>
  </separator>
  <separator name="orbital magnetization" >
   <i type="logical" name="NUCIND"> F  </i>
   <v name="MAGPOS">      0.00000000      0.00000000      0.00000000</v>
   <i type="logical" name="LNICSALL"> T  </i>
   <i type="logical" name="ORBITALMAG"> F  </i>
   <i type="logical" name="LMAGBLOCH"> F  </i>
   <i type="logical" name="LCHIMAG"> F  </i>
   <i type="logical" name="LGAUGE"> T  </i>
   <i type="int" name="MAGATOM">     0</i>
   <v name="MAGDIPOL">      0.00000000      0.00000000      0.00000000</v>
   <v name="AVECCONST">      0.00000000      0.00000000      0.00000000</v>
  </separator>
  <separator name="response functions" >
   <i type="logical" name="LALL_IN_ONE"> F  </i>
   <i type="int" name="IALL_IN_ONE">    -1</i>
   <i type="int" name="NBANDS_WAVE">    -1</i>
   <i type="logical" name="LFINITE_TEMPERATURE"> F  </i>
   <i type="logical" name="LADDER"> F  </i>
   <i type="logical" name="LRPAFORCE"> F  </i>
   <i type="logical" name="LFXC"> F  </i>
   <i type="logical" name="LHARTREE"> T  </i>
   <i type="int" name="IBSE">     2</i>
   <v type="int" name="KPOINT">    -1     0     0     0</v>
   <i type="logical" name="LTCTC"> F  </i>
   <i type="logical" name="LTCTE"> F  </i>
   <i type="logical" name="LTETE"> F  </i>
   <i type="logical" name="LTRIPLET"> F  </i>
   <i type="logical" name="LFXCEPS"> F  </i>
   <i type="logical" name="LFXHEG"> F  </i>
   <i type="int" name="NATURALO">     2</i>
   <i type="logical" name="LHOLEGF"> F  </i>
   <i type="logical" name="L2ORDER"> F  </i>
   <i type="logical" name="LDMP1"> F  </i>
   <i type="logical" name="LMP2LT"> F  </i>
   <i type="logical" name="LSMP2LT"> F  </i>
   <i type="logical" name="LGWLF"> F  </i>
   <i name="ENCUTGW">     -1.60000002</i>
   <i name="ENCUTGWSOFT">     -1.60000002</i>
   <i name="ENCUTLF">     -1.00000000</i>
   <i type="logical" name="ESF_SPLINES"> F  </i>
   <i name="ESF_CONV">      0.01000000</i>
   <i type="int" name="ESF_NINTER">    15</i>
   <i type="int" name="LMAXMP2">    -1</i>
   <i name="SCISSOR">      0.00000000</i>
   <i type="int" name="NOMEGA">     0</i>
   <i type="int" name="NOMEGAR">     0</i>
   <i type="int" name="NBANDSGW">    -1</i>
   <i type="int" name="NBANDSO">    -1</i>
   <i type="int" name="NBANDSV">    -1</i>
   <i type="int" name="NELMGW">     1</i>
   <i type="int" name="NELMHF">     1</i>
   <i type="int" name="DIM">     3</i>
   <i type="int" name="IESPILON">     4</i>
   <i type="int" name="ANTIRES">     0</i>
   <i name="OMEGAMAX">    -30.00000000</i>
   <i name="OMEGAMIN">    -30.00000000</i>
   <i name="OMEGATL">   -200.00000000</i>
   <i type="int" name="OMEGAGRID">     0</i>
   <i name="CSHIFT">     -0.10000000</i>
   <i type="logical" name="LSELFENERGY"> F  </i>
   <i type="logical" name="LSPECTRAL"> F  </i>
   <i type="logical" name="LSPECTRALGW"> F  </i>
   <i type="logical" name="LSINGLES"> F  </i>
   <i type="logical" name="LFERMIGW"> F  </i>
   <i type="logical" name="ODDONLYGW"> F  </i>
   <i type="logical" name="EVENONLYGW"> F  </i>
   <i type="int" name="NKREDLFX">     1</i>
   <i type="int" name="NKREDLFY">     1</i>
   <i type="int" name="NKREDLFZ">     1</i>
   <i type="int" name="MAXMEM">  2800</i>
   <i type="int" name="TELESCOPE">     0</i>
   <i type="int" name="NTAUPAR">    -1</i>
   <i type="int" name="NOMEGAPAR">    -1</i>
   <i name="DAMP_NEWTON">      0.80000001</i>
   <i name="LAMBDA">      1.00000000</i>
  </separator>
  <separator name="External order field" >
   <i name="OFIELD_KAPPA">      0.00000000</i>
   <v name="OFIELD_K">      0.00000000      0.00000000      0.00000000</v>
   <i name="OFIELD_Q6_NEAR">      0.00000000</i>
   <i name="OFIELD_Q6_FAR">      0.00000000</i>
   <i name="OFIELD_A">      0.00000000</i>
  </separator>
  <separator name="optional k-points parameters" >
   <i type="int" name="KPOINTS_OPT_MODE">     1</i>
   <i type="logical" name="LKPOINTS_OPT"> F  </i>
  </separator>
 </parameters>
 <atominfo>
  <atoms>       6 </atoms>
  <types>       2 </types>
  <array name="atoms" >
   <dimension dim="1">ion</dimension>
   <field type="string">element</field>
   <field type="int">atomtype</field>
   <set>
    <rc><c>Mo</c><c>   1</c></rc>
    <rc><c>Mo</c><c>   1</c></rc>
    <rc><c>Te</c><c>   2</c></rc>
    <rc><c>Te</c><c>   2</c></rc>
    <rc><c>Te</c><c>   2</c></rc>
    <rc><c>Te</c><c>   2</c></rc>
   </set>
  </array>
  <array name="atomtypes" >
   <dimension dim="1">type</dimension>
   <field type="int">atomspertype</field>
   <field type="string">element</field>
   <field>mass</field>
   <field>valence</field>
   <field type="string">pseudopotential</field>
   <set>
    <rc><c>   2</c><c>Mo</c><c>     95.94000000</c><c>     14.00000000</c><c>  PAW_PBE Mo_sv 02Feb2006               </c></rc>
    <rc><c>   4</c><c>Te</c><c>    127.60000000</c><c>      6.00000000</c><c>  PAW_PBE Te 08Apr2002                  </c></rc>
   </set>
  </array>
 </atominfo>
 <structure name="initialpos" >
  <crystal>
   <varray name="basis" >
    <v>       3.51898122       0.00000007       0.00000029 </v>
    <v>      -1.75949056       3.04752716       0.00000014 </v>
    <v>       0.00000000       0.00000000      14.03694577 </v>
   </varray>
   <i name="volume">    150.53488694 </i>
   <varray name="rec_basis" >
    <v>       0.28417315       0.16406744       0.00000000 </v>
    <v>      -0.00000001       0.32813489       0.00000000 </v>
    <v>      -0.00000001      -0.00000001       0.07124057 </v>
   </varray>
  </crystal>
  <varray name="positions" >
   <v>       0.33333333       0.66666665       0.25000000 </v>
   <v>       0.66666664       0.33333335       0.75000000 </v>
   <v>       0.33333329       0.66666668       0.62074578 </v>
   <v>       0.66666668       0.33333332       0.37925422 </v>
   <v>       0.66666665       0.33333331       0.12074578 </v>
   <v>       0.33333332       0.66666669       0.87925422 </v>
  </varray>
 </structure>
 <calculation>
  <scstep>
   <time name="dav">    0.07    0.07</time>
   <time name="total">    0.13    0.14</time>
   <energy>
    <i name="alphaZ">     96.92262515 </i>
    <i name="ewald">  -2919.12777455 </i>
    <i name="hartreedc">  -1657.43049423 </i>
    <i name="XCdc">     21.69616759 </i>
    <i name="pawpsdc">   3826.61822168 </i>
    <i name="pawaedc">  -3635.71132862 </i>
    <i name="eentropy">     -0.00773892 </i>
    <i name="bandstr">   -108.27650538 </i>
    <i name="atom">   4617.37722804 </i>
    <i name="e_fr_energy">    242.06040075 </i>
    <i name="e_wo_entrp">    242.06813967 </i>
    <i name="e_0_energy">    242.06427021 </i>
   </energy>
  </scstep>
  <scstep>
   <time name="dav">    0.04    0.04</time>
   <time name="total">    0.04    0.04</time>
   <energy>
    <i name="e_fr_energy">    -23.74143119 </i>
    <i name="e_wo_entrp">    -23.74121006 </i>
    <i name="e_0_energy">    -23.74132062 </i>
   </energy>
  </scstep>
  <scstep>
   <time name="dav">    0.04    0.04</time>
   <time name="total">    0.04    0.04</time>
   <energy>
    <i name="e_fr_energy">    -36.90144908 </i>
    <i name="e_wo_entrp">    -36.90144908 </i>
    <i name="e_0_energy">    -36.90144908 </i>
   </energy>
  </scstep>
  <scstep>
   <time name="dav">    0.04    0.04</time>
   <time name="total">    0.04    0.04</time>
   <energy>
    <i name="e_fr_energy">    -37.23862942 </i>
    <i name="e_wo_entrp">    -37.23862942 </i>
    <i name="e_0_energy">    -37.23862942 </i>
   </energy>
  </scstep>
  <scstep>
   <time name="dav">    0.04    0.04</time>
   <time name="total">    0.04    0.04</time>
   <energy>
    <i name="e_fr_energy">    -37.24750294 </i>
    <i name="e_wo_entrp">    -37.24750294 </i>
    <i name="e_0_energy">    -37.24750294 </i>
   </energy>
  </scstep>
  <scstep>
   <time name="dav">    0.03    0.03</time>
   <time name="total">    0.10    0.10</time>
   <energy>
    <i name="e_fr_energy">    -36.47143799 </i>
    <i name="e_wo_entrp">    -36.47143799 </i>
    <i name="e_0_energy">    -36.47143799 </i>
   </energy>
  </scstep>
  <scstep>
   <time name="dav">    0.05    0.05</time>
   <time name="total">    0.12    0.12</time>
   <energy>
    <i name="e_fr_energy">    -36.39938706 </i>
    <i name="e_wo_entrp">    -36.39938706 </i>
    <i name="e_0_energy">    -36.39938706 </i>
   </energy>
  </scstep>
  <scstep>
   <time name="dav">    0.04    0.04</time>
   <time name="total">    0.11    0.11</time>
   <energy>
    <i name="e_fr_energy">    -35.96608001 </i>
    <i name="e_wo_entrp">    -35.96608001 </i>
    <i name="e_0_energy">    -35.96608001 </i>
   </energy>
  </scstep>
  <scstep>
   <time name="dav">    0.03    0.03</time>
   <time name="total">    0.10    0.10</time>
   <energy>
    <i name="e_fr_energy">    -35.96518103 </i>
    <i name="e_wo_entrp">    -35.96518103 </i>
    <i name="e_0_energy">    -35.96518103 </i>
   </energy>
  </scstep>
  <scstep>
   <time name="dav">    0.03    0.03</time>
   <time name="total">    0.10    0.10</time>
   <energy>
    <i name="e_fr_energy">    -35.95942523 </i>
    <i name="e_wo_entrp">    -35.95942523 </i>
    <i name="e_0_energy">    -35.95942523 </i>
   </energy>
  </scstep>
  <scstep>
   <time name="dav">    0.03    0.03</time>
   <time name="total">    0.10    0.11</time>
   <energy>
    <i name="e_fr_energy">    -35.95975282 </i>
    <i name="e_wo_entrp">    -35.95975282 </i>
    <i name="e_0_energy">    -35.95975282 </i>
   </energy>
  </scstep>
  <scstep>
   <time name="dav">    0.03    0.03</time>
   <time name="total">    0.10    0.10</time>
   <energy>
    <i name="e_fr_energy">    -35.95964912 </i>
    <i name="e_wo_entrp">    -35.95964912 </i>
    <i name="e_0_energy">    -35.95964912 </i>
   </energy>
  </scstep>
  <scstep>
   <time name="dav">    0.03    0.03</time>
   <time name="total">    0.10    0.11</time>
   <energy>
    <i name="e_fr_energy">    -35.95962692 </i>
    <i name="e_wo_entrp">    -35.95962692 </i>
    <i name="e_0_energy">    -35.95962692 </i>
   </energy>
  </scstep>
  <scstep>
   <time name="dav">    0.03    0.03</time>
   <time name="total">    0.10    0.10</time>
   <energy>
    <i name="e_fr_energy">    -35.95962846 </i>
    <i name="e_wo_entrp">    -35.95962846 </i>
    <i name="e_0_energy">    -35.95962846 </i>
   </energy>
  </scstep>
  <scstep>
   <time name="dav">    0.03    0.03</time>
   <time name="total">    0.10    0.10</time>
   <energy>
    <i name="e_fr_energy">    -35.95962697 </i>
    <i name="e_wo_entrp">    -35.95962697 </i>
    <i name="e_0_energy">    -35.95962697 </i>
   </energy>
  </scstep>
  <scstep>
   <time name="dav">    0.03    0.03</time>
   <time name="total">    0.09    0.10</time>
   <energy>
    <i name="alphaZ">     96.92262515 </i>
    <i name="ewald">  -2919.12777455 </i>
    <i name="hartreedc">  -1632.58175463 </i>
    <i name="XCdc">     20.50313309 </i>
    <i name="pawpsdc">   5355.90126665 </i>
    <i name="pawaedc">  -5170.43203309 </i>
    <i name="eentropy">     -0.00000000 </i>
    <i name="bandstr">   -404.52231696 </i>
    <i name="atom">   4617.37722804 </i>
    <i name="e_fr_energy">    -35.95962628 </i>
    <i name="e_wo_entrp">    -35.95962628 </i>
    <i name="e_0_energy">    -35.95962628 </i>
   </energy>
  </scstep>
  <structure>
   <crystal>
    <varray name="basis" >
     <v>       3.51898122       0.00000007       0.00000029 </v>
     <v>      -1.75949056       3.04752716       0.00000014 </v>
     <v>       0.00000000       0.00000000      14.03694577 </v>
    </varray>
    <i name="volume">    150.53488694 </i>
    <varray name="rec_basis" >
     <v>       0.28417315       0.16406744       0.00000000 </v>
     <v>      -0.00000001       0.32813489       0.00000000 </v>
     <v>      -0.00000001      -0.00000001       0.07124057 </v>
    </varray>
   </crystal>
   <varray name="positions" >
    <v>       0.33333333       0.66666665       0.25000000 </v>
    <v>       0.66666664       0.33333335       0.75000000 </v>
    <v>       0.33333329       0.66666668       0.62074578 </v>
    <v>       0.66666668       0.33333332       0.37925422 </v>
    <v>       0.66666665       0.33333331       0.12074578 </v>
    <v>       0.33333332       0.66666669       0.87925422 </v>
   </varray>
  </structure>
  <varray name="forces" >
   <v>       0.00000000      -0.00000000       0.00000000 </v>
   <v>      -0.00000000       0.00000000       0.00000000 </v>
   <v>      -0.00000000       0.00000000      -0.00156455 </v>
   <v>       0.00000000       0.00000000       0.00156455 </v>
   <v>       0.00000000      -0.00000000      -0.00156455 </v>
   <v>       0.00000000      -0.00000000       0.00156455 </v>
  </varray>
  <varray name="stress" >
   <v>     -19.09330720      -0.00000067      -0.00000158 </v>
   <v>      -0.00000067     -19.09330796      -0.00000181 </v>
   <v>      -0.00000158      -0.00000181     -18.88286481 </v>
  </varray>
  <energy>
   <i name="e_fr_energy">    -37.94236570 </i>
   <i name="e_wo_entrp">    -37.94236570 </i>
   <i name="e_0_energy">    -37.94236570 </i>
  </energy>
  <time name="totalsc">    1.71    1.87</time>
  <eigenvalues>
   <array>
    <dimension dim="1">band</dimension>
    <dimension dim="2">kpoint</dimension>
    <dimension dim="3">spin</dimension>
    <field>eigene</field>
    <field>occ</field>
    <set>
     <set comment="spin 1">
      <set comment="kpoint 1">
       <r>  -52.7157    1.0000 </r>
       <r>  -52.7156    1.0000 </r>
       <r>  -26.8986    1.0000 </r>
       <r>  -26.8939    1.0000 </r>
       <r>  -26.7673    1.0000 </r>
       <r>  -26.7669    1.0000 </r>
       <r>  -26.7636    1.0000 </r>
       <r>  -26.7632    1.0000 </r>
       <r>   -4.9179    1.0000 </r>
       <r>   -4.5992    1.0000 </r>
       <r>   -4.0818    1.0000 </r>
       <r>   -3.5872    1.0000 </r>
       <r>    2.2308    1.0000 </r>
       <r>    3.5184    1.0000 </r>
       <r>    4.9668    1.0000 </r>
       <r>    6.3016    1.0000 </r>
       <r>    6.3018    1.0000 </r>
       <r>    6.3161    1.0000 </r>
       <r>    6.3163    1.0000 </r>
       <r>    7.0231    1.0000 </r>
       <r>    7.0688    1.0000 </r>
       <r>    7.0688    1.0000 </r>
       <r>    7.1024    1.0000 </r>
       <r>    7.1024    1.0000 </r>
       <r>    7.7239    1.0000 </r>
       <r>    8.0611    1.0000 </r>
       <r>   10.9891    0.0000 </r>
       <r>   10.9891    0.0000 </r>
       <r>   11.1193    0.0000 </r>
       <r>   11.1217    0.0000 </r>
       <r>   11.2052    0.0000 </r>
      </set>
      <set comment="kpoint 2">
       <r>  -52.7132    1.0000 </r>
       <r>  -52.7131    1.0000 </r>
       <r>  -26.8894    1.0000 </r>
       <r>  -26.8876    1.0000 </r>
       <r>  -26.7981    1.0000 </r>
       <r>  -26.7978    1.0000 </r>
       <r>  -26.7717    1.0000 </r>
       <r>  -26.7693    1.0000 </r>
       <r>   -4.5330    1.0000 </r>
       <r>   -4.2214    1.0000 </r>
       <r>   -3.7954    1.0000 </r>
       <r>   -3.3375    1.0000 </r>
       <r>    2.6494    1.0000 </r>
       <r>    3.9043    1.0000 </r>
       <r>    4.7752    1.0000 </r>
       <r>    5.4688    1.0000 </r>
       <r>    5.5462    1.0000 </r>
       <r>    6.0146    1.0000 </r>
       <r>    6.5966    1.0000 </r>
       <r>    6.6088    1.0000 </r>
       <r>    6.6371    1.0000 </r>
       <r>    6.6670    1.0000 </r>
       <r>    6.8724    1.0000 </r>
       <r>    7.0909    1.0000 </r>
       <r>    7.6353    1.0000 </r>
       <r>    7.7887    1.0000 </r>
       <r>    9.8713    0.0000 </r>
       <r>   10.1464    0.0000 </r>
       <r>   10.1594    0.0000 </r>
       <r>   10.4065    0.0000 </r>
       <r>   10.4683    0.0000 </r>
      </set>
      <set comment="kpoint 3">
       <r>  -52.7082    1.0000 </r>
       <r>  -52.7081    1.0000 </r>
       <r>  -26.8742    1.0000 </r>
       <r>  -26.8725    1.0000 </r>
       <r>  -26.8620    1.0000 </r>
       <r>  -26.8603    1.0000 </r>
       <r>  -26.7879    1.0000 </r>
       <r>  -26.7873    1.0000 </r>
       <r>   -3.5401    1.0000 </r>
       <r>   -3.2771    1.0000 </r>
       <r>   -3.0637    1.0000 </r>
       <r>   -2.7330    1.0000 </r>
       <r>    3.2028    1.0000 </r>
       <r>    3.5952    1.0000 </r>
       <r>    3.9596    1.0000 </r>
       <r>    4.0185    1.0000 </r>
       <r>    4.2636    1.0000 </r>
       <r>    4.8264    1.0000 </r>
       <r>    5.8916    1.0000 </r>
       <r>    5.9804    1.0000 </r>
       <r>    6.1036    1.0000 </r>
       <r>    6.7670    1.0000 </r>
       <r>    6.8083    1.0000 </r>
       <r>    7.0287    1.0000 </r>
       <r>    7.2229    1.0000 </r>
       <r>    7.3676    1.0000 </r>
       <r>    9.1960    0.0000 </r>
       <r>    9.5871    0.0000 </r>
       <r>    9.7831    0.0000 </r>
       <r>    9.8164    0.0000 </r>
       <r>   10.2408    0.0000 </r>
      </set>
      <set comment="kpoint 4">
       <r>  -52.7055    1.0000 </r>
       <r>  -52.7054    1.0000 </r>
       <r>  -26.8922    1.0000 </r>
       <r>  -26.8905    1.0000 </r>
       <r>  -26.8674    1.0000 </r>
       <r>  -26.8657    1.0000 </r>
       <r>  -26.7939    1.0000 </r>
       <r>  -26.7933    1.0000 </r>
       <r>   -2.7867    1.0000 </r>
       <r>   -2.6464    1.0000 </r>
       <r>   -2.5197    1.0000 </r>
       <r>   -2.3795    1.0000 </r>
       <r>    2.2805    1.0000 </r>
       <r>    2.5630    1.0000 </r>
       <r>    3.1767    1.0000 </r>
       <r>    3.2798    1.0000 </r>
       <r>    4.2043    1.0000 </r>
       <r>    4.9014    1.0000 </r>
       <r>    5.5936    1.0000 </r>
       <r>    5.6932    1.0000 </r>
       <r>    6.1141    1.0000 </r>
       <r>    6.2725    1.0000 </r>
       <r>    7.0921    1.0000 </r>
       <r>    7.1386    1.0000 </r>
       <r>    7.5134    1.0000 </r>
       <r>    7.7997    1.0000 </r>
       <r>    9.3703    0.0000 </r>
       <r>    9.4268    0.0000 </r>
       <r>    9.5434    0.0000 </r>
       <r>    9.8827    0.0000 </r>
       <r>   10.6740    0.0000 </r>
      </set>
      <set comment="kpoint 5">
       <r>  -52.7094    1.0000 </r>
       <r>  -52.7094    1.0000 </r>
       <r>  -26.8782    1.0000 </r>
       <r>  -26.8781    1.0000 </r>
       <r>  -26.8383    1.0000 </r>
       <r>  -26.8383    1.0000 </r>
       <r>  -26.7908    1.0000 </r>
       <r>  -26.7906    1.0000 </r>
       <r>   -3.8356    1.0000 </r>
       <r>   -3.5508    1.0000 </r>
       <r>   -3.2784    1.0000 </r>
       <r>   -2.9005    1.0000 </r>
       <r>    3.2693    1.0000 </r>
       <r>    4.1377    1.0000 </r>
       <r>    4.4848    1.0000 </r>
       <r>    4.5735    1.0000 </r>
       <r>    4.7397    1.0000 </r>
       <r>    5.0188    1.0000 </r>
       <r>    5.2383    1.0000 </r>
       <r>    5.7068    1.0000 </r>
       <r>    6.4165    1.0000 </r>
       <r>    6.4427    1.0000 </r>
       <r>    6.9875    1.0000 </r>
       <r>    7.2583    1.0000 </r>
       <r>    7.2782    1.0000 </r>
       <r>    7.4329    1.0000 </r>
       <r>    8.8982    0.0000 </r>
       <r>    9.6398    0.0000 </r>
       <r>    9.6626    0.0000 </r>
       <r>    9.6872    0.0000 </r>
       <r>   10.0329    0.0000 </r>
      </set>
      <set comment="kpoint 6">
       <r>  -52.7055    1.0000 </r>
       <r>  -52.7055    1.0000 </r>
       <r>  -26.8762    1.0000 </r>
       <r>  -26.8754    1.0000 </r>
       <r>  -26.8676    1.0000 </r>
       <r>  -26.8661    1.0000 </r>
       <r>  -26.8109    1.0000 </r>
       <r>  -26.8089    1.0000 </r>
       <r>   -2.8518    1.0000 </r>
       <r>   -2.6785    1.0000 </r>
       <r>   -2.5589    1.0000 </r>
       <r>   -2.3664    1.0000 </r>
       <r>    2.8687    1.0000 </r>
       <r>    3.0839    1.0000 </r>
       <r>    3.5196    1.0000 </r>
       <r>    3.5715    1.0000 </r>
       <r>    4.3534    1.0000 </r>
       <r>    4.9499    1.0000 </r>
       <r>    4.9548    1.0000 </r>
       <r>    5.3152    1.0000 </r>
       <r>    5.6532    1.0000 </r>
       <r>    5.9485    1.0000 </r>
       <r>    6.3062    1.0000 </r>
       <r>    6.5592    1.0000 </r>
       <r>    7.5293    1.0000 </r>
       <r>    7.7145    1.0000 </r>
       <r>    9.1249    0.0000 </r>
       <r>    9.5933    0.0000 </r>
       <r>    9.6828    0.0000 </r>
       <r>    9.8326    0.0000 </r>
       <r>    9.9790    0.0000 </r>
      </set>
      <set comment="kpoint 7">
       <r>  -52.7043    1.0000 </r>
       <r>  -52.7043    1.0000 </r>
       <r>  -26.8638    1.0000 </r>
       <r>  -26.8638    1.0000 </r>
       <r>  -26.8617    1.0000 </r>
       <r>  -26.8617    1.0000 </r>
       <r>  -26.8460    1.0000 </r>
       <r>  -26.8448    1.0000 </r>
       <r>   -2.4006    1.0000 </r>
       <r>   -2.4006    1.0000 </r>
       <r>   -2.2083    1.0000 </r>
       <r>   -2.2083    1.0000 </r>
       <r>    3.2353    1.0000 </r>
       <r>    3.4287    1.0000 </r>
       <r>    3.4287    1.0000 </r>
       <r>    3.4748    1.0000 </r>
       <r>    3.8988    1.0000 </r>
       <r>    4.2240    1.0000 </r>
       <r>    4.7380    1.0000 </r>
       <r>    4.7380    1.0000 </r>
       <r>    4.9982    1.0000 </r>
       <r>    4.9982    1.0000 </r>
       <r>    6.2525    1.0000 </r>
       <r>    6.2525    1.0000 </r>
       <r>    7.7946    1.0000 </r>
       <r>    8.0320    1.0000 </r>
       <r>    9.0788    0.0000 </r>
       <r>    9.0788    0.0000 </r>
       <r>    9.2344    0.0000 </r>
       <r>   10.2242    0.0000 </r>
       <r>   10.3868    0.0000 </r>
      </set>
      <set comment="kpoint 8">
       <r>  -52.7155    1.0000 </r>
       <r>  -52.7155    1.0000 </r>
       <r>  -26.8937    1.0000 </r>
       <r>  -26.8937    1.0000 </r>
       <r>  -26.7637    1.0000 </r>
       <r>  -26.7637    1.0000 </r>
       <r>  -26.7633    1.0000 </r>
       <r>  -26.7633    1.0000 </r>
       <r>   -4.7962    1.0000 </r>
       <r>   -4.7962    1.0000 </r>
       <r>   -3.8000    1.0000 </r>
       <r>   -3.8000    1.0000 </r>
       <r>    2.7239    1.0000 </r>
       <r>    2.7239    1.0000 </r>
       <r>    6.0428    1.0000 </r>
       <r>    6.0428    1.0000 </r>
       <r>    6.3091    1.0000 </r>
       <r>    6.3091    1.0000 </r>
       <r>    6.3092    1.0000 </r>
       <r>    6.3092    1.0000 </r>
       <r>    7.0867    1.0000 </r>
       <r>    7.0867    1.0000 </r>
       <r>    7.0867    1.0000 </r>
       <r>    7.0867    1.0000 </r>
       <r>    7.9780    1.0000 </r>
       <r>    7.9780    1.0000 </r>
       <r>   11.0259    0.0000 </r>
       <r>   11.0259    0.0000 </r>
       <r>   11.0259    0.0000 </r>
       <r>   11.0259    0.0000 </r>
       <r>   11.3585    0.0000 </r>
      </set>
      <set comment="kpoint 9">
       <r>  -52.7131    1.0000 </r>
       <r>  -52.7131    1.0000 </r>
       <r>  -26.8876    1.0000 </r>
       <r>  -26.8876    1.0000 </r>
       <r>  -26.7965    1.0000 </r>
       <r>  -26.7965    1.0000 </r>
       <r>  -26.7724    1.0000 </r>
       <r>  -26.7724    1.0000 </r>
       <r>   -4.4164    1.0000 </r>
       <r>   -4.4164    1.0000 </r>
       <r>   -3.5294    1.0000 </r>
       <r>   -3.5294    1.0000 </r>
       <r>    3.1039    1.0000 </r>
       <r>    3.1039    1.0000 </r>
       <r>    5.4626    1.0000 </r>
       <r>    5.4626    1.0000 </r>
       <r>    5.6711    1.0000 </r>
       <r>    5.6712    1.0000 </r>
       <r>    6.6007    1.0000 </r>
       <r>    6.6007    1.0000 </r>
       <r>    6.6533    1.0000 </r>
       <r>    6.6533    1.0000 </r>
       <r>    6.9265    1.0000 </r>
       <r>    6.9265    1.0000 </r>
       <r>    7.6794    1.0000 </r>
       <r>    7.6794    1.0000 </r>
       <r>   10.0286    0.0000 </r>
       <r>   10.0286    0.0000 </r>
       <r>   10.2848    0.0000 </r>
       <r>   10.2848    0.0000 </r>
       <r>   10.5947    0.0000 </r>
      </set>
      <set comment="kpoint 10">
       <r>  -52.7081    1.0000 </r>
       <r>  -52.7081    1.0000 </r>
       <r>  -26.8744    1.0000 </r>
       <r>  -26.8744    1.0000 </r>
       <r>  -26.8597    1.0000 </r>
       <r>  -26.8597    1.0000 </r>
       <r>  -26.7867    1.0000 </r>
       <r>  -26.7867    1.0000 </r>
       <r>   -3.4472    1.0000 </r>
       <r>   -3.4472    1.0000 </r>
       <r>   -2.8602    1.0000 </r>
       <r>   -2.8602    1.0000 </r>
       <r>    3.3916    1.0000 </r>
       <r>    3.3916    1.0000 </r>
       <r>    3.9104    1.0000 </r>
       <r>    3.9104    1.0000 </r>
       <r>    4.6314    1.0000 </r>
       <r>    4.6314    1.0000 </r>
       <r>    5.9336    1.0000 </r>
       <r>    5.9336    1.0000 </r>
       <r>    6.3475    1.0000 </r>
       <r>    6.3475    1.0000 </r>
       <r>    6.9905    1.0000 </r>
       <r>    6.9905    1.0000 </r>
       <r>    7.2979    1.0000 </r>
       <r>    7.2979    1.0000 </r>
       <r>    9.4512    0.0000 </r>
       <r>    9.4512    0.0000 </r>
       <r>    9.6864    0.0000 </r>
       <r>    9.6864    0.0000 </r>
       <r>   10.8338    0.0000 </r>
      </set>
      <set comment="kpoint 11">
       <r>  -52.7055    1.0000 </r>
       <r>  -52.7055    1.0000 </r>
       <r>  -26.8918    1.0000 </r>
       <r>  -26.8918    1.0000 </r>
       <r>  -26.8667    1.0000 </r>
       <r>  -26.8667    1.0000 </r>
       <r>  -26.7938    1.0000 </r>
       <r>  -26.7938    1.0000 </r>
       <r>   -2.7341    1.0000 </r>
       <r>   -2.7341    1.0000 </r>
       <r>   -2.4321    1.0000 </r>
       <r>   -2.4321    1.0000 </r>
       <r>    2.4148    1.0000 </r>
       <r>    2.4148    1.0000 </r>
       <r>    3.1963    1.0000 </r>
       <r>    3.1963    1.0000 </r>
       <r>    4.5964    1.0000 </r>
       <r>    4.5964    1.0000 </r>
       <r>    5.6413    1.0000 </r>
       <r>    5.6413    1.0000 </r>
       <r>    6.1601    1.0000 </r>
       <r>    6.1601    1.0000 </r>
       <r>    7.1316    1.0000 </r>
       <r>    7.1316    1.0000 </r>
       <r>    7.6552    1.0000 </r>
       <r>    7.6552    1.0000 </r>
       <r>    9.3941    0.0000 </r>
       <r>    9.3941    0.0000 </r>
       <r>    9.7289    0.0000 </r>
       <r>    9.7289    0.0000 </r>
       <r>   11.1113    0.0000 </r>
      </set>
      <set comment="kpoint 12">
       <r>  -52.7093    1.0000 </r>
       <r>  -52.7093    1.0000 </r>
       <r>  -26.8768    1.0000 </r>
       <r>  -26.8768    1.0000 </r>
       <r>  -26.8374    1.0000 </r>
       <r>  -26.8374    1.0000 </r>
       <r>  -26.7887    1.0000 </r>
       <r>  -26.7887    1.0000 </r>
       <r>   -3.7334    1.0000 </r>
       <r>   -3.7334    1.0000 </r>
       <r>   -3.0502    1.0000 </r>
       <r>   -3.0502    1.0000 </r>
       <r>    3.6021    1.0000 </r>
       <r>    3.6021    1.0000 </r>
       <r>    4.4768    1.0000 </r>
       <r>    4.4768    1.0000 </r>
       <r>    5.0362    1.0000 </r>
       <r>    5.0362    1.0000 </r>
       <r>    5.5130    1.0000 </r>
       <r>    5.5130    1.0000 </r>
       <r>    6.4319    1.0000 </r>
       <r>    6.4319    1.0000 </r>
       <r>    7.0128    1.0000 </r>
       <r>    7.0128    1.0000 </r>
       <r>    7.3846    1.0000 </r>
       <r>    7.3846    1.0000 </r>
       <r>    9.1927    0.0000 </r>
       <r>    9.1927    0.0000 </r>
       <r>    9.7999    0.0000 </r>
       <r>    9.7999    0.0000 </r>
       <r>   10.2122    0.0000 </r>
      </set>
      <set comment="kpoint 13">
       <r>  -52.7055    1.0000 </r>
       <r>  -52.7055    1.0000 </r>
       <r>  -26.8761    1.0000 </r>
       <r>  -26.8761    1.0000 </r>
       <r>  -26.8675    1.0000 </r>
       <r>  -26.8675    1.0000 </r>
       <r>  -26.8106    1.0000 </r>
       <r>  -26.8106    1.0000 </r>
       <r>   -2.7904    1.0000 </r>
       <r>   -2.7904    1.0000 </r>
       <r>   -2.4374    1.0000 </r>
       <r>   -2.4374    1.0000 </r>
       <r>    2.9789    1.0000 </r>
       <r>    2.9789    1.0000 </r>
       <r>    3.5200    1.0000 </r>
       <r>    3.5200    1.0000 </r>
       <r>    4.5608    1.0000 </r>
       <r>    4.5608    1.0000 </r>
       <r>    5.2672    1.0000 </r>
       <r>    5.2672    1.0000 </r>
       <r>    5.8393    1.0000 </r>
       <r>    5.8393    1.0000 </r>
       <r>    6.3507    1.0000 </r>
       <r>    6.3507    1.0000 </r>
       <r>    7.6213    1.0000 </r>
       <r>    7.6213    1.0000 </r>
       <r>    9.3691    0.0000 </r>
       <r>    9.3691    0.0000 </r>
       <r>    9.7110    0.0000 </r>
       <r>    9.7110    0.0000 </r>
       <r>   10.3344    0.0000 </r>
      </set>
      <set comment="kpoint 14">
       <r>  -52.7043    1.0000 </r>
       <r>  -52.7043    1.0000 </r>
       <r>  -26.8639    1.0000 </r>
       <r>  -26.8639    1.0000 </r>
       <r>  -26.8621    1.0000 </r>
       <r>  -26.8621    1.0000 </r>
       <r>  -26.8466    1.0000 </r>
       <r>  -26.8466    1.0000 </r>
       <r>   -2.4005    1.0000 </r>
       <r>   -2.4005    1.0000 </r>
       <r>   -2.2085    1.0000 </r>
       <r>   -2.2085    1.0000 </r>
       <r>    3.3295    1.0000 </r>
       <r>    3.3295    1.0000 </r>
       <r>    3.4548    1.0000 </r>
       <r>    3.4548    1.0000 </r>
       <r>    4.0863    1.0000 </r>
       <r>    4.0863    1.0000 </r>
       <r>    4.4889    1.0000 </r>
       <r>    4.4889    1.0000 </r>
       <r>    5.3598    1.0000 </r>
       <r>    5.3598    1.0000 </r>
       <r>    6.0955    1.0000 </r>
       <r>    6.0955    1.0000 </r>
       <r>    7.8889    1.0000 </r>
       <r>    7.8889    1.0000 </r>
       <r>    9.0867    0.0000 </r>
       <r>    9.0867    0.0000 </r>
       <r>    9.6905    0.0000 </r>
       <r>    9.6905    0.0000 </r>
       <r>   10.4587    0.0000 </r>
      </set>
     </set>
    </set>
   </array>
  </eigenvalues>
  <separator name="orbital magnetization" >
   <v name="MAGDIPOLOUT">      0.00000000      0.00000000      0.00000000</v>
  </separator>
  <dos>
   <i name="efermi">      8.27756885 </i>
   <total>
    <array>
     <dimension dim="1">gridpoints</dimension>
     <dimension dim="2">spin</dimension>
     <field>energy</field>
     <field>total</field>
     <field>integrated</field>
     <set>
      <set comment="spin 1">
       <r>   -55.9194     0.0000     0.0000 </r>
       <r>   -55.6845     0.0000     0.0000 </r>
       <r>   -55.4495     0.0000     0.0000 </r>
       <r>   -55.2146     0.0000     0.0000 </r>
       <r>   -54.9797     0.0000     0.0000 </r>
       <r>   -54.7447     0.0000     0.0000 </r>
       <r>   -54.5098     0.0000     0.0000 </r>
       <r>   -54.2748     0.0000     0.0000 </r>
       <r>   -54.0399     0.0000     0.0000 </r>
       <r>   -53.8050     0.0000     0.0000 </r>
       <r>   -53.5700     0.0000     0.0000 </r>
       <r>   -53.3351     0.0000     0.0000 </r>
       <r>   -53.1002     0.0000     0.0000 </r>
       <r>   -52.8652     0.0001     0.0000 </r>
       <r>   -52.6303    16.7844     3.9433 </r>
       <r>   -52.3953     0.2413     4.0000 </r>
       <r>   -52.1604     0.0000     4.0000 </r>
       <r>   -51.9255     0.0000     4.0000 </r>
       <r>   -51.6905     0.0000     4.0000 </r>
       <r>   -51.4556     0.0000     4.0000 </r>
       <r>   -51.2206     0.0000     4.0000 </r>
       <r>   -50.9857     0.0000     4.0000 </r>
       <r>   -50.7508     0.0000     4.0000 </r>
       <r>   -50.5158     0.0000     4.0000 </r>
       <r>   -50.2809     0.0000     4.0000 </r>
       <r>   -50.0459     0.0000     4.0000 </r>
       <r>   -49.8110     0.0000     4.0000 </r>
       <r>   -49.5761     0.0000     4.0000 </r>
       <r>   -49.3411     0.0000     4.0000 </r>
       <r>   -49.1062     0.0000     4.0000 </r>
       <r>   -48.8713     0.0000     4.0000 </r>
       <r>   -48.6363     0.0000     4.0000 </r>
       <r>   -48.4014     0.0000     4.0000 </r>
       <r>   -48.1664     0.0000     4.0000 </r>
       <r>   -47.9315     0.0000     4.0000 </r>
       <r>   -47.6966     0.0000     4.0000 </r>
       <r>   -47.4616     0.0000     4.0000 </r>
       <r>   -47.2267     0.0000     4.0000 </r>
       <r>   -46.9917     0.0000     4.0000 </r>
       <r>   -46.7568     0.0000     4.0000 </r>
       <r>   -46.5219     0.0000     4.0000 </r>
       <r>   -46.2869     0.0000     4.0000 </r>
       <r>   -46.0520     0.0000     4.0000 </r>
       <r>   -45.8171     0.0000     4.0000 </r>
       <r>   -45.5821     0.0000     4.0000 </r>
       <r>   -45.3472     0.0000     4.0000 </r>
       <r>   -45.1122     0.0000     4.0000 </r>
       <r>   -44.8773     0.0000     4.0000 </r>
       <r>   -44.6424     0.0000     4.0000 </r>
       <r>   -44.4074     0.0000     4.0000 </r>
       <r>   -44.1725     0.0000     4.0000 </r>
       <r>   -43.9375     0.0000     4.0000 </r>
       <r>   -43.7026     0.0000     4.0000 </r>
       <r>   -43.4677     0.0000     4.0000 </r>
       <r>   -43.2327     0.0000     4.0000 </r>
       <r>   -42.9978     0.0000     4.0000 </r>
       <r>   -42.7629     0.0000     4.0000 </r>
       <r>   -42.5279     0.0000     4.0000 </r>
       <r>   -42.2930     0.0000     4.0000 </r>
       <r>   -42.0580     0.0000     4.0000 </r>
       <r>   -41.8231     0.0000     4.0000 </r>
       <r>   -41.5882     0.0000     4.0000 </r>
       <r>   -41.3532     0.0000     4.0000 </r>
       <r>   -41.1183     0.0000     4.0000 </r>
       <r>   -40.8833     0.0000     4.0000 </r>
       <r>   -40.6484     0.0000     4.0000 </r>
       <r>   -40.4135     0.0000     4.0000 </r>
       <r>   -40.1785     0.0000     4.0000 </r>
       <r>   -39.9436     0.0000     4.0000 </r>
       <r>   -39.7086     0.0000     4.0000 </r>
       <r>   -39.4737     0.0000     4.0000 </r>
       <r>   -39.2388     0.0000     4.0000 </r>
       <r>   -39.0038     0.0000     4.0000 </r>
       <r>   -38.7689     0.0000     4.0000 </r>
       <r>   -38.5340     0.0000     4.0000 </r>
       <r>   -38.2990     0.0000     4.0000 </r>
       <r>   -38.0641     0.0000     4.0000 </r>
       <r>   -37.8291     0.0000     4.0000 </r>
       <r>   -37.5942     0.0000     4.0000 </r>
       <r>   -37.3593     0.0000     4.0000 </r>
       <r>   -37.1243     0.0000     4.0000 </r>
       <r>   -36.8894     0.0000     4.0000 </r>
       <r>   -36.6544     0.0000     4.0000 </r>
       <r>   -36.4195     0.0000     4.0000 </r>
       <r>   -36.1846     0.0000     4.0000 </r>
       <r>   -35.9496     0.0000     4.0000 </r>
       <r>   -35.7147     0.0000     4.0000 </r>
       <r>   -35.4798     0.0000     4.0000 </r>
       <r>   -35.2448     0.0000     4.0000 </r>
       <r>   -35.0099     0.0000     4.0000 </r>
       <r>   -34.7749     0.0000     4.0000 </r>
       <r>   -34.5400     0.0000     4.0000 </r>
       <r>   -34.3051     0.0000     4.0000 </r>
       <r>   -34.0701     0.0000     4.0000 </r>
       <r>   -33.8352     0.0000     4.0000 </r>
       <r>   -33.6002     0.0000     4.0000 </r>
       <r>   -33.3653     0.0000     4.0000 </r>
       <r>   -33.1304     0.0000     4.0000 </r>
       <r>   -32.8954     0.0000     4.0000 </r>
       <r>   -32.6605     0.0000     4.0000 </r>
       <r>   -32.4256     0.0000     4.0000 </r>
       <r>   -32.1906     0.0000     4.0000 </r>
       <r>   -31.9557     0.0000     4.0000 </r>
       <r>   -31.7207     0.0000     4.0000 </r>
       <r>   -31.4858     0.0000     4.0000 </r>
       <r>   -31.2509     0.0000     4.0000 </r>
       <r>   -31.0159     0.0000     4.0000 </r>
       <r>   -30.7810     0.0000     4.0000 </r>
       <r>   -30.5460     0.0000     4.0000 </r>
       <r>   -30.3111     0.0000     4.0000 </r>
       <r>   -30.0762     0.0000     4.0000 </r>
       <r>   -29.8412     0.0000     4.0000 </r>
       <r>   -29.6063     0.0000     4.0000 </r>
       <r>   -29.3713     0.0000     4.0000 </r>
       <r>   -29.1364     0.0000     4.0000 </r>
       <r>   -28.9015     0.0000     4.0000 </r>
       <r>   -28.6665     0.0000     4.0000 </r>
       <r>   -28.4316     0.0000     4.0000 </r>
       <r>   -28.1967     0.0000     4.0000 </r>
       <r>   -27.9617     0.0000     4.0000 </r>
       <r>   -27.7268     0.0000     4.0000 </r>
       <r>   -27.4918     0.0000     4.0000 </r>
       <r>   -27.2569     0.0000     4.0000 </r>
       <r>   -27.0220     0.0007     4.0002 </r>
       <r>   -26.7870    42.0724    13.8846 </r>
       <r>   -26.5521     9.0040    16.0000 </r>
       <r>   -26.3171     0.0000    16.0000 </r>
       <r>   -26.0822     0.0000    16.0000 </r>
       <r>   -25.8473     0.0000    16.0000 </r>
       <r>   -25.6123     0.0000    16.0000 </r>
       <r>   -25.3774     0.0000    16.0000 </r>
       <r>   -25.1425     0.0000    16.0000 </r>
       <r>   -24.9075     0.0000    16.0000 </r>
       <r>   -24.6726     0.0000    16.0000 </r>
       <r>   -24.4376     0.0000    16.0000 </r>
       <r>   -24.2027     0.0000    16.0000 </r>
       <r>   -23.9678     0.0000    16.0000 </r>
       <r>   -23.7328     0.0000    16.0000 </r>
       <r>   -23.4979     0.0000    16.0000 </r>
       <r>   -23.2629     0.0000    16.0000 </r>
       <r>   -23.0280     0.0000    16.0000 </r>
       <r>   -22.7931     0.0000    16.0000 </r>
       <r>   -22.5581     0.0000    16.0000 </r>
       <r>   -22.3232     0.0000    16.0000 </r>
       <r>   -22.0883     0.0000    16.0000 </r>
       <r>   -21.8533     0.0000    16.0000 </r>
       <r>   -21.6184     0.0000    16.0000 </r>
       <r>   -21.3834     0.0000    16.0000 </r>
       <r>   -21.1485     0.0000    16.0000 </r>
       <r>   -20.9136     0.0000    16.0000 </r>
       <r>   -20.6786     0.0000    16.0000 </r>
       <r>   -20.4437     0.0000    16.0000 </r>
       <r>   -20.2087     0.0000    16.0000 </r>
       <r>   -19.9738     0.0000    16.0000 </r>
       <r>   -19.7389     0.0000    16.0000 </r>
       <r>   -19.5039     0.0000    16.0000 </r>
       <r>   -19.2690     0.0000    16.0000 </r>
       <r>   -19.0340     0.0000    16.0000 </r>
       <r>   -18.7991     0.0000    16.0000 </r>
       <r>   -18.5642     0.0000    16.0000 </r>
       <r>   -18.3292     0.0000    16.0000 </r>
       <r>   -18.0943     0.0000    16.0000 </r>
       <r>   -17.8594     0.0000    16.0000 </r>
       <r>   -17.6244     0.0000    16.0000 </r>
       <r>   -17.3895     0.0000    16.0000 </r>
       <r>   -17.1545     0.0000    16.0000 </r>
       <r>   -16.9196     0.0000    16.0000 </r>
       <r>   -16.6847     0.0000    16.0000 </r>
       <r>   -16.4497     0.0000    16.0000 </r>
       <r>   -16.2148     0.0000    16.0000 </r>
       <r>   -15.9798     0.0000    16.0000 </r>
       <r>   -15.7449     0.0000    16.0000 </r>
       <r>   -15.5100     0.0000    16.0000 </r>
       <r>   -15.2750     0.0000    16.0000 </r>
       <r>   -15.0401     0.0000    16.0000 </r>
       <r>   -14.8052     0.0000    16.0000 </r>
       <r>   -14.5702     0.0000    16.0000 </r>
       <r>   -14.3353     0.0000    16.0000 </r>
       <r>   -14.1003     0.0000    16.0000 </r>
       <r>   -13.8654     0.0000    16.0000 </r>
       <r>   -13.6305     0.0000    16.0000 </r>
       <r>   -13.3955     0.0000    16.0000 </r>
       <r>   -13.1606     0.0000    16.0000 </r>
       <r>   -12.9256     0.0000    16.0000 </r>
       <r>   -12.6907     0.0000    16.0000 </r>
       <r>   -12.4558     0.0000    16.0000 </r>
       <r>   -12.2208     0.0000    16.0000 </r>
       <r>   -11.9859     0.0000    16.0000 </r>
       <r>   -11.7510     0.0000    16.0000 </r>
       <r>   -11.5160     0.0000    16.0000 </r>
       <r>   -11.2811     0.0000    16.0000 </r>
       <r>   -11.0461     0.0000    16.0000 </r>
       <r>   -10.8112     0.0000    16.0000 </r>
       <r>   -10.5763     0.0000    16.0000 </r>
       <r>   -10.3413     0.0000    16.0000 </r>
       <r>   -10.1064     0.0000    16.0000 </r>
       <r>    -9.8714     0.0000    16.0000 </r>
       <r>    -9.6365     0.0000    16.0000 </r>
       <r>    -9.4016     0.0000    16.0000 </r>
       <r>    -9.1666     0.0000    16.0000 </r>
       <r>    -8.9317     0.0000    16.0000 </r>
       <r>    -8.6967     0.0000    16.0000 </r>
       <r>    -8.4618     0.0000    16.0000 </r>
       <r>    -8.2269     0.0000    16.0000 </r>
       <r>    -7.9919     0.0000    16.0000 </r>
       <r>    -7.7570     0.0000    16.0000 </r>
       <r>    -7.5221     0.0000    16.0000 </r>
       <r>    -7.2871     0.0000    16.0000 </r>
       <r>    -7.0522     0.0000    16.0000 </r>
       <r>    -6.8172     0.0000    16.0000 </r>
       <r>    -6.5823     0.0000    16.0000 </r>
       <r>    -6.3474     0.0000    16.0000 </r>
       <r>    -6.1124     0.0000    16.0000 </r>
       <r>    -5.8775     0.0000    16.0000 </r>
       <r>    -5.6425     0.0000    16.0000 </r>
       <r>    -5.4076     0.0000    16.0000 </r>
       <r>    -5.1727     0.0000    16.0000 </r>
       <r>    -4.9377     0.0339    16.0080 </r>
       <r>    -4.7028     0.3200    16.0832 </r>
       <r>    -4.4679     0.9086    16.2966 </r>
       <r>    -4.2329     1.6024    16.6731 </r>
       <r>    -3.9980     0.5627    16.8053 </r>
       <r>    -3.7630     1.7644    17.2198 </r>
       <r>    -3.5281     3.1423    17.9581 </r>
       <r>    -3.2932     3.6481    18.8152 </r>
       <r>    -3.0582     2.0029    19.2857 </r>
       <r>    -2.8233     4.7395    20.3992 </r>
       <r>    -2.5883     6.6115    21.9525 </r>
       <r>    -2.3534     7.0614    23.6115 </r>
       <r>    -2.1185     1.6484    23.9988 </r>
       <r>    -1.8835     0.0052    24.0000 </r>
       <r>    -1.6486     0.0000    24.0000 </r>
       <r>    -1.4137     0.0000    24.0000 </r>
       <r>    -1.1787     0.0000    24.0000 </r>
       <r>    -0.9438     0.0000    24.0000 </r>
       <r>    -0.7088     0.0000    24.0000 </r>
       <r>    -0.4739     0.0000    24.0000 </r>
       <r>    -0.2390     0.0000    24.0000 </r>
       <r>    -0.0040     0.0000    24.0000 </r>
       <r>     0.2309     0.0000    24.0000 </r>
       <r>     0.4659     0.0000    24.0000 </r>
       <r>     0.7008     0.0000    24.0000 </r>
       <r>     0.9357     0.0000    24.0000 </r>
       <r>     1.1707     0.0000    24.0000 </r>
       <r>     1.4056     0.0000    24.0000 </r>
       <r>     1.6406     0.0000    24.0000 </r>
       <r>     1.8755     0.0000    24.0000 </r>
       <r>     2.1104     0.0000    24.0000 </r>
       <r>     2.3454     0.4786    24.1125 </r>
       <r>     2.5803     0.9655    24.3393 </r>
       <r>     2.8152     1.1301    24.6048 </r>
       <r>     3.0502     4.4352    25.6468 </r>
       <r>     3.2851     5.2738    26.8858 </r>
       <r>     3.5201     5.7278    28.2315 </r>
       <r>     3.7550     5.6356    29.5556 </r>
       <r>     3.9899     3.0614    30.2748 </r>
       <r>     4.2249     2.3727    30.8322 </r>
       <r>     4.4598     2.9714    31.5303 </r>
       <r>     4.6948     7.6347    33.3240 </r>
       <r>     4.9297     3.5774    34.1645 </r>
       <r>     5.1646     4.8752    35.3099 </r>
       <r>     5.3996     5.4183    36.5828 </r>
       <r>     5.6345     5.5324    37.8826 </r>
       <r>     5.8694     6.2275    39.3457 </r>
       <r>     6.1044     6.3150    40.8293 </r>
       <r>     6.3393     5.8359    42.2004 </r>
       <r>     6.5743     7.5041    43.9634 </r>
       <r>     6.8092     6.4922    45.4887 </r>
       <r>     7.0441     6.4674    47.0081 </r>
       <r>     7.2791     5.4831    48.2963 </r>
       <r>     7.5140     5.0619    49.4855 </r>
       <r>     7.7490     8.1802    51.4074 </r>
       <r>     7.9839     2.0858    51.8974 </r>
       <r>     8.2188     0.4367    52.0000 </r>
       <r>     8.4538     0.0000    52.0000 </r>
       <r>     8.6887     0.0000    52.0000 </r>
       <r>     8.9237     0.5424    52.1274 </r>
       <r>     9.1586     2.6184    52.7426 </r>
       <r>     9.3935     5.1697    53.9571 </r>
       <r>     9.6285     5.5776    55.2675 </r>
       <r>     9.8634    12.9312    58.3056 </r>
       <r>    10.0983     4.6453    59.3969 </r>
       <r>    10.3333     5.0543    60.5844 </r>
       <r>    10.5682     2.8742    61.2597 </r>
       <r>    10.8032     1.0417    61.5044 </r>
       <r>    11.0381     1.0987    61.7625 </r>
       <r>    11.2730     0.8902    61.9717 </r>
       <r>    11.5080     0.1206    62.0000 </r>
       <r>    11.7429     0.0000    62.0000 </r>
       <r>    11.9779     0.0000    62.0000 </r>
       <r>    12.2128     0.0000    62.0000 </r>
       <r>    12.4477     0.0000    62.0000 </r>
       <r>    12.6827     0.0000    62.0000 </r>
       <r>    12.9176     0.0000    62.0000 </r>
       <r>    13.1525     0.0000    62.0000 </r>
       <r>    13.3875     0.0000    62.0000 </r>
       <r>    13.6224     0.0000    62.0000 </r>
       <r>    13.8574     0.0000    62.0000 </r>
       <r>    14.0923     0.0000    62.0000 </r>
       <r>    14.3272     0.0000    62.0000 </r>
       <r>    14.5622     0.0000    62.0000 </r>
      </set>
     </set>
    </array>
   </total>
  </dos>
 </calculation>
 <structure name="finalpos" >
  <crystal>
   <varray name="basis" >
    <v>       3.51898122       0.00000007       0.00000029 </v>
    <v>      -1.75949056       3.04752716       0.00000014 </v>
    <v>       0.00000000       0.00000000      14.03694577 </v>
   </varray>
   <i name="volume">    150.53488694 </i>
   <varray name="rec_basis" >
    <v>       0.28417315       0.16406744       0.00000000 </v>
    <v>      -0.00000001       0.32813489       0.00000000 </v>
    <v>      -0.00000001      -0.00000001       0.07124057 </v>
   </varray>
  </crystal>
  <varray name="positions" >
   <v>       0.33333333       0.66666665       0.25000000 </v>
   <v>       0.66666664       0.33333335       0.75000000 </v>
   <v>       0.33333329       0.66666668       0.62074578 </v>
   <v>       0.66666668       0.33333332       0.37925422 </v>
   <v>       0.66666665       0.33333331       0.12074578 </v>
   <v>       0.33333332       0.66666669       0.87925422 </v>
  </varray>
 </structure>
</modeling>
