   6   6   0   0
  0.2508915E+02  0.3518981E-09  0.3518981E-09  0.1403695E-08  0.5000000E-15
  1.000000000000000E-004
  CAR 
 bulk MoTe2                              
     39.27193495     -1.81374253  301     17.68304483      1.00000000
     -1.814  0.0000E+00  0.0000E+00
     -1.677  0.0000E+00  0.0000E+00
     -1.540  0.0000E+00  0.0000E+00
     -1.403  0.0000E+00  0.0000E+00
     -1.266  0.0000E+00  0.0000E+00
     -1.129  0.0000E+00  0.0000E+00
     -0.992  0.0000E+00  0.0000E+00
     -0.855  0.0000E+00  0.0000E+00
     -0.718  0.0000E+00  0.0000E+00
     -0.581  0.0000E+00  0.0000E+00
     -0.444  0.0000E+00  0.0000E+00
     -0.307  0.0000E+00  0.0000E+00
     -0.170  0.4502E-10  0.6166E-11
     -0.033  0.4950E-02  0.6779E-03
      0.104  0.2441E+01  0.3350E+00
      0.241  0.3210E+01  0.7747E+00
      0.377  0.5133E+01  0.1478E+01
      0.514  0.3779E+01  0.1995E+01
      0.651  0.1912E+01  0.2257E+01
      0.788  0.1146E+01  0.2414E+01
      0.925  0.6187E+00  0.2499E+01
      1.062  0.3838E+00  0.2551E+01
      1.199  0.5827E-01  0.2559E+01
      1.336  0.1736E+01  0.2797E+01
      1.473  0.4983E+01  0.3479E+01
      1.610  0.3793E+01  0.3999E+01
      1.747  0.5536E+01  0.4757E+01
      1.884  0.9226E+01  0.6021E+01
      2.021  0.9214E+01  0.7283E+01
      2.158  0.1134E+02  0.8835E+01
      2.295  0.5893E+01  0.9642E+01
      2.432  0.5337E+01  0.1037E+02
      2.569  0.2145E+01  0.1067E+02
      2.706  0.3367E+01  0.1113E+02
      2.843  0.3802E+01  0.1165E+02
      2.980  0.5717E+01  0.1243E+02
      3.117  0.4967E+01  0.1311E+02
      3.253  0.1521E+01  0.1332E+02
      3.390  0.8245E+00  0.1343E+02
      3.527  0.1435E+01  0.1363E+02
      3.664  0.2179E+01  0.1393E+02
      3.801  0.4682E+01  0.1457E+02
      3.938  0.4089E+01  0.1513E+02
      4.075  0.3182E+01  0.1557E+02
      4.212  0.4845E+01  0.1623E+02
      4.349  0.2454E+01  0.1656E+02
      4.486  0.1197E+01  0.1673E+02
      4.623  0.2538E+01  0.1708E+02
      4.760  0.2281E+01  0.1739E+02
      4.897  0.2140E+01  0.1768E+02
      5.034  0.2606E+01  0.1804E+02
      5.171  0.1239E+00  0.1806E+02
      5.308  0.9738E-05  0.1806E+02
      5.445  0.4290E+00  0.1811E+02
      5.582  0.2763E+01  0.1849E+02
      5.719  0.2887E+01  0.1889E+02
      5.856  0.1223E+00  0.1890E+02
      5.993  0.1185E+01  0.1907E+02
      6.129  0.1711E+01  0.1930E+02
      6.266  0.1326E+01  0.1948E+02
      6.403  0.3487E+01  0.1996E+02
      6.540  0.7438E+00  0.2006E+02
      6.677  0.1161E+01  0.2022E+02
      6.814  0.1811E+01  0.2047E+02
      6.951  0.1833E+01  0.2072E+02
      7.088  0.1228E+01  0.2089E+02
      7.225  0.1899E+01  0.2115E+02
      7.362  0.5380E+00  0.2122E+02
      7.499  0.6152E+00  0.2131E+02
      7.636  0.1053E+01  0.2145E+02
      7.773  0.2853E+01  0.2184E+02
      7.910  0.5025E+01  0.2253E+02
      8.047  0.3834E+01  0.2305E+02
      8.184  0.1279E+01  0.2323E+02
      8.321  0.1471E+01  0.2343E+02
      8.458  0.3915E+01  0.2397E+02
      8.595  0.8916E+00  0.2409E+02
      8.732  0.3455E+01  0.2456E+02
      8.869  0.2606E+01  0.2492E+02
      9.005  0.1161E+01  0.2508E+02
      9.142  0.1297E+01  0.2526E+02
      9.279  0.1745E+01  0.2550E+02
      9.416  0.3218E+01  0.2594E+02
      9.553  0.4071E+01  0.2649E+02
      9.690  0.5067E+01  0.2719E+02
      9.827  0.5318E+01  0.2792E+02
      9.964  0.5804E+01  0.2871E+02
     10.101  0.4193E+01  0.2928E+02
     10.238  0.2541E+01  0.2963E+02
     10.375  0.2390E+01  0.2996E+02
     10.512  0.3897E+01  0.3049E+02
     10.649  0.3398E+01  0.3096E+02
     10.786  0.6290E+01  0.3182E+02
     10.923  0.6020E+01  0.3265E+02
     11.060  0.4567E+01  0.3327E+02
     11.197  0.5755E+01  0.3406E+02
     11.334  0.4568E+01  0.3468E+02
     11.471  0.3034E+01  0.3510E+02
     11.608  0.1803E+01  0.3535E+02
     11.745  0.3187E+01  0.3578E+02
     11.881  0.7235E+01  0.3677E+02
     12.018  0.5882E+01  0.3758E+02
     12.155  0.5640E+00  0.3766E+02
     12.292  0.2959E+01  0.3806E+02
     12.429  0.3973E+01  0.3861E+02
     12.566  0.3584E+01  0.3910E+02
     12.703  0.3867E+01  0.3963E+02
     12.840  0.5287E+01  0.4035E+02
     12.977  0.5715E+01  0.4113E+02
     13.114  0.1374E+01  0.4132E+02
     13.251  0.1013E+01  0.4146E+02
     13.388  0.5377E+01  0.4220E+02
     13.525  0.2280E+01  0.4251E+02
     13.662  0.2895E+01  0.4291E+02
     13.799  0.2831E+00  0.4294E+02
     13.936  0.4714E+00  0.4301E+02
     14.073  0.1965E+01  0.4328E+02
     14.210  0.1134E+01  0.4343E+02
     14.347  0.2286E+01  0.4375E+02
     14.484  0.1784E+01  0.4399E+02
     14.621  0.8317E+01  0.4513E+02
     14.757  0.3990E+01  0.4568E+02
     14.894  0.3031E+01  0.4609E+02
     15.031  0.2846E+01  0.4648E+02
     15.168  0.1289E+01  0.4666E+02
     15.305  0.1835E+01  0.4691E+02
     15.442  0.1591E+01  0.4713E+02
     15.579  0.2163E+01  0.4742E+02
     15.716  0.3072E+01  0.4784E+02
     15.853  0.2931E+01  0.4825E+02
     15.990  0.1701E+01  0.4848E+02
     16.127  0.4458E+00  0.4854E+02
     16.264  0.3543E+01  0.4902E+02
     16.401  0.1794E+01  0.4927E+02
     16.538  0.6520E-01  0.4928E+02
     16.675  0.2495E+01  0.4962E+02
     16.812  0.5606E+00  0.4970E+02
     16.949  0.2038E+01  0.4998E+02
     17.086  0.3474E+01  0.5045E+02
     17.223  0.2030E+01  0.5073E+02
     17.360  0.4509E+01  0.5135E+02
     17.497  0.1936E+01  0.5161E+02
     17.633  0.1587E+01  0.5183E+02
     17.770  0.4164E+01  0.5240E+02
     17.907  0.2405E+01  0.5273E+02
     18.044  0.6222E+01  0.5358E+02
     18.181  0.5477E+01  0.5433E+02
     18.318  0.2038E+01  0.5461E+02
     18.455  0.1937E+01  0.5488E+02
     18.592  0.6259E+01  0.5573E+02
     18.729  0.8079E+01  0.5684E+02
     18.866  0.1206E+01  0.5701E+02
     19.003  0.6508E+00  0.5709E+02
     19.140  0.2706E+01  0.5746E+02
     19.277  0.4071E+01  0.5802E+02
     19.414  0.2737E+01  0.5840E+02
     19.551  0.2256E+01  0.5871E+02
     19.688  0.8788E+01  0.5991E+02
     19.825  0.6072E+01  0.6074E+02
     19.962  0.6973E+01  0.6170E+02
     20.099  0.2463E+01  0.6203E+02
     20.236  0.8159E+01  0.6315E+02
     20.373  0.8571E+01  0.6433E+02
     20.509  0.5710E+01  0.6511E+02
     20.646  0.6882E+01  0.6605E+02
     20.783  0.6826E+01  0.6698E+02
     20.920  0.6658E+01  0.6790E+02
     21.057  0.9923E+01  0.6926E+02
     21.194  0.6099E+01  0.7009E+02
     21.331  0.1035E+02  0.7151E+02
     21.468  0.6966E+01  0.7246E+02
     21.605  0.1823E+02  0.7496E+02
     21.742  0.9752E+01  0.7629E+02
     21.879  0.6717E+01  0.7721E+02
     22.016  0.6715E+01  0.7813E+02
     22.153  0.2614E+01  0.7849E+02
     22.290  0.3000E+01  0.7890E+02
     22.427  0.2052E+01  0.7918E+02
     22.564  0.2221E+01  0.7949E+02
     22.701  0.6551E+01  0.8039E+02
     22.838  0.6762E+01  0.8131E+02
     22.975  0.5143E+01  0.8202E+02
     23.112  0.6943E+01  0.8297E+02
     23.249  0.6780E+01  0.8390E+02
     23.385  0.6123E+01  0.8473E+02
     23.522  0.2992E+01  0.8514E+02
     23.659  0.8476E+01  0.8630E+02
     23.796  0.5695E+01  0.8708E+02
     23.933  0.6660E+01  0.8800E+02
     24.070  0.8909E+01  0.8922E+02
     24.207  0.1212E+02  0.9088E+02
     24.344  0.5499E+01  0.9163E+02
     24.481  0.3504E+01  0.9211E+02
     24.618  0.1776E+01  0.9235E+02
     24.755  0.2026E+01  0.9263E+02
     24.892  0.4488E+01  0.9324E+02
     25.029  0.7047E+01  0.9421E+02
     25.166  0.1073E+02  0.9568E+02
     25.303  0.3959E+01  0.9622E+02
     25.440  0.5497E+01  0.9697E+02
     25.577  0.1897E+01  0.9723E+02
     25.714  0.4387E+01  0.9783E+02
     25.851  0.5722E+01  0.9862E+02
     25.988  0.1654E+01  0.9884E+02
     26.125  0.8003E+01  0.9994E+02
     26.261  0.3192E+01  0.1004E+03
     26.398  0.2847E+01  0.1008E+03
     26.535  0.3152E+01  0.1012E+03
     26.672  0.3529E+01  0.1017E+03
     26.809  0.6936E+00  0.1018E+03
     26.946  0.3410E+01  0.1022E+03
     27.083  0.2356E+01  0.1026E+03
     27.220  0.6450E+01  0.1035E+03
     27.357  0.5506E+01  0.1042E+03
     27.494  0.2058E+01  0.1045E+03
     27.631  0.2547E+01  0.1048E+03
     27.768  0.2196E+01  0.1051E+03
     27.905  0.1280E+01  0.1053E+03
     28.042  0.5424E+01  0.1061E+03
     28.179  0.1670E+01  0.1063E+03
     28.316  0.1173E+01  0.1064E+03
     28.453  0.3112E+01  0.1069E+03
     28.590  0.4929E+00  0.1069E+03
     28.727  0.1860E+01  0.1072E+03
     28.864  0.4915E+00  0.1073E+03
     29.001  0.4007E+01  0.1078E+03
     29.137  0.1109E+01  0.1080E+03
     29.274  0.5639E+00  0.1080E+03
     29.411  0.2484E+01  0.1084E+03
     29.548  0.1949E+01  0.1086E+03
     29.685  0.2325E+01  0.1090E+03
     29.822  0.4605E+00  0.1090E+03
     29.959  0.4050E+00  0.1091E+03
     30.096  0.2001E-01  0.1091E+03
     30.233  0.2140E+01  0.1094E+03
     30.370  0.1133E+01  0.1095E+03
     30.507  0.1156E+01  0.1097E+03
     30.644  0.1038E+01  0.1098E+03
     30.781  0.1017E+01  0.1100E+03
     30.918  0.3084E+00  0.1100E+03
     31.055  0.9733E-01  0.1100E+03
     31.192  0.2144E-03  0.1100E+03
     31.329  0.1335E+01  0.1102E+03
     31.466  0.1142E+01  0.1104E+03
     31.603  0.1471E+01  0.1106E+03
     31.740  0.2264E+00  0.1106E+03
     31.877  0.6787E+00  0.1107E+03
     32.013  0.6282E+00  0.1108E+03
     32.150  0.3806E+00  0.1108E+03
     32.287  0.1987E-01  0.1108E+03
     32.424  0.6553E-08  0.1108E+03
     32.561  0.0000E+00  0.1108E+03
     32.698  0.0000E+00  0.1108E+03
     32.835  0.3356E-12  0.1108E+03
     32.972  0.3593E-03  0.1108E+03
     33.109  0.4473E+00  0.1109E+03
     33.246  0.1608E+00  0.1109E+03
     33.383  0.2229E-04  0.1109E+03
     33.520  0.2000E+00  0.1109E+03
     33.657  0.2056E+00  0.1110E+03
     33.794  0.2335E-04  0.1110E+03
     33.931  0.2720E-02  0.1110E+03
     34.068  0.1026E+01  0.1111E+03
     34.205  0.2062E+00  0.1111E+03
     34.342  0.5762E+00  0.1112E+03
     34.479  0.1411E-01  0.1112E+03
     34.616  0.1363E-08  0.1112E+03
     34.753  0.0000E+00  0.1112E+03
     34.889  0.0000E+00  0.1112E+03
     35.026  0.5052E-08  0.1112E+03
     35.163  0.5479E-01  0.1112E+03
     35.300  0.2307E+01  0.1115E+03
     35.437  0.4482E+00  0.1116E+03
     35.574  0.2918E-01  0.1116E+03
     35.711  0.1937E-07  0.1116E+03
     35.848  0.0000E+00  0.1116E+03
     35.985  0.0000E+00  0.1116E+03
     36.122  0.0000E+00  0.1116E+03
     36.259  0.4906E-12  0.1116E+03
     36.396  0.8792E-03  0.1116E+03
     36.533  0.1676E+01  0.1118E+03
     36.670  0.7572E+00  0.1119E+03
     36.807  0.1538E-04  0.1119E+03
     36.944  0.0000E+00  0.1119E+03
     37.081  0.0000E+00  0.1119E+03
     37.218  0.2589E-07  0.1119E+03
     37.355  0.3224E-01  0.1119E+03
     37.492  0.3706E+00  0.1120E+03
     37.629  0.2779E-02  0.1120E+03
     37.765  0.4703E-10  0.1120E+03
     37.902  0.0000E+00  0.1120E+03
     38.039  0.0000E+00  0.1120E+03
     38.176  0.0000E+00  0.1120E+03
     38.313  0.0000E+00  0.1120E+03
     38.450  0.0000E+00  0.1120E+03
     38.587  0.0000E+00  0.1120E+03
     38.724  0.0000E+00  0.1120E+03
     38.861  0.0000E+00  0.1120E+03
     38.998  0.0000E+00  0.1120E+03
     39.135  0.0000E+00  0.1120E+03
     39.272  0.0000E+00  0.1120E+03
