    6    6    1    1
  0.2508915E+02  0.3518981E-09  0.3518981E-09  0.1403695E-08  0.5000000E-15
  1.000000000000000E-004
  CAR 
 bulk MoTe2                              
     52     14     56
 
  0.0000000E+00  0.0000000E+00  0.0000000E+00  0.1388889E-01
      1          0.053788   1.000000
      2          0.166189   1.000000
      3          0.058862   1.000000
      4          0.286245   1.000000
      5          4.248647   1.000000
      6          0.076939   1.000000
      7          0.228507   1.000000
      8          0.071137   1.000000
      9          1.802442   1.000000
     10          0.108626   1.000000
     11          0.125093   1.000000
     12          3.086401   1.000000
     13          0.097583   1.000000
     14          1.025549   1.000000
     15          0.399489   1.000000
     16          0.451541   1.000000
     17          0.176776   1.000000
     18          0.234011   1.000000
     19          0.307179   1.000000
     20          3.392766   1.000000
     21          0.219209   1.000000
     22          1.815398   1.000000
     23          1.260030   1.000000
     24          0.155639   1.000000
     25          0.166812   1.000000
     26          2.902042   1.000000
     27          0.424778   1.000000
     28          0.160931   1.000000
     29          0.093976   1.000000
     30          4.824665   1.000000
     31          1.988436   1.000000
     32          0.206885   1.000000
     33          9.688928   1.000000
     34          0.413479   1.000000
     35          0.082287   1.000000
     36          0.966890   1.000000
     37          0.140342   1.000000
     38          0.518081   1.000000
     39          0.704945   1.000000
     40          1.251162   1.000000
     41          0.170415   1.000000
     42          0.074525   1.000000
     43          2.997239   1.000000
     44          0.092104   1.000000
     45          0.204185   1.000000
     46          0.062287   1.000000
     47          0.367748   1.000000
     48          0.412198   1.000000
     49          0.078869   1.000000
     50          4.578132   1.000000
     51          0.091983   1.000000
     52          0.670459   1.000000
     53          0.114840   1.000000
     54          0.086416   1.000000
     55          0.061477   1.000000
     56          0.316468   1.000000
 
  0.1666667E+00  0.0000000E+00  0.0000000E+00  0.8333333E-01
      1          3.463246   1.000000
      2          1.431441   1.000000
      3          3.870870   1.000000
      4          1.431514   1.000000
      5          2.896920   1.000000
      6          2.113245   1.000000
      7          4.925238   1.000000
      8          2.687619   1.000000
      9          1.421032   1.000000
     10          1.369349   1.000000
     11          4.988701   1.000000
     12          1.971449   1.000000
     13          3.888388   1.000000
     14          1.751881   1.000000
     15         11.522178   1.000000
     16          1.581631   1.000000
     17          3.735977   1.000000
     18          4.594907   1.000000
     19          3.063587   1.000000
     20          1.895744   1.000000
     21          2.709762   1.000000
     22          2.049890   1.000000
     23          3.564713   1.000000
     24          1.700984   1.000000
     25          4.021297   1.000000
     26          5.514537   1.000000
     27          1.819456   1.000000
     28          6.276749   1.000000
     29          3.789713   1.000000
     30          7.033478   1.000000
     31          3.679682   1.000000
     32          2.343968   1.000000
     33          1.752534   1.000000
     34          4.892819   1.000000
     35          5.593943   1.000000
     36         11.053650   1.000000
     37          1.792591   1.000000
     38          4.301735   1.000000
     39         23.205141   0.000000
     40          1.812114   1.000000
     41         15.669474   1.000000
     42          4.650170   1.000000
     43          1.892770   1.000000
     44          1.724892   1.000000
     45          1.557586   1.000000
     46          3.992009   1.000000
     47          2.085065   1.000000
     48          5.901855   1.000000
     49          1.294735   1.000000
     50          1.653309   1.000000
     51          1.527514   1.000000
     52          2.473475   1.000000
     53          2.054077   1.000000
     54          4.153592   1.000000
     55          8.371250   1.000000
     56          2.120586   1.000000
 
  0.3333333E+00  0.0000000E+00  0.0000000E+00  0.8333333E-01
      1         16.886841   1.000000
      2         14.758179   1.000000
      3         19.563430   0.000000
      4         18.207582   0.000000
      5         15.540193   1.000000
      6         15.667656   1.000000
      7         14.159283   1.000000
      8         11.673464   1.000000
      9         17.093057   1.000000
     10         13.583100   1.000000
     11         11.340017   1.000000
     12         20.659110   0.000000
     13         15.487140   1.000000
     14         21.205928   0.000000
     15         18.643126   0.000000
     16         15.360111   1.000000
     17         11.419461   1.000000
     18         12.764387   1.000000
     19         11.172640   1.000000
     20         10.346189   1.000000
     21          9.476304   1.000000
     22         10.921735   1.000000
     23         17.651758   0.811904
     24         14.590316   1.000000
     25         19.576231   0.000000
     26          9.696593   1.000000
     27          9.566910   1.000000
     28         12.955123   1.000000
     29         14.591733   1.000000
     30         18.412051   0.000000
     31         21.590702   0.000000
     32         14.949605   1.000000
     33         14.965545   1.000000
     34         28.644979   0.000000
     35         13.955594   1.000000
     36         25.807243   0.000000
     37         13.336502   1.000000
     38         22.309918   0.000000
     39         11.118765   1.000000
     40         14.611502   1.000000
     41         12.943741   1.000000
     42         17.061006   1.000000
     43         17.576920   0.998657
     44         20.205788   0.000000
     45         19.038641   0.000000
     46         19.828429   0.000000
     47         11.950208   1.000000
     48         15.710324   1.000000
     49         22.614550   0.000000
     50         15.283877   1.000000
     51         11.970969   1.000000
     52          8.724472   1.000000
     53         17.686671   0.459154
     54          8.458464   1.000000
     55         21.158975   0.000000
     56         14.529364   1.000000
 
  0.5000000E+00 -0.2775558E-16  0.0000000E+00  0.4166667E-01
      1         23.152265   0.000000
      2         33.086803   0.000000
      3         21.901115   0.000000
      4         21.514050   0.000000
      5         21.598499   0.000000
      6         20.901129   0.000000
      7         18.723413   0.000000
      8         17.752139   0.025334
      9         16.665336   1.000000
     10         22.664249   0.000000
     11         21.815468   0.000000
     12         23.255005   0.000000
     13         24.806445   0.000000
     14         23.005732   0.000000
     15         26.387892   0.000000
     16         23.293024   0.000000
     17         20.810317   0.000000
     18         23.596762   0.000000
     19         21.841169   0.000000
     20         23.104485   0.000000
     21         25.161511   0.000000
     22         25.721558   0.000000
     23         19.857195   0.000000
     24         17.907762   0.000000
     25         24.553354   0.000000
     26         21.175533   0.000000
     27         25.475598   0.000000
     28         34.271233   0.000000
     29         24.377985   0.000000
     30         23.251004   0.000000
     31         34.034572   0.000000
     32         20.485242   0.000000
     33         21.734534   0.000000
     34         22.769339   0.000000
     35         21.145850   0.000000
     36         24.839068   0.000000
     37         15.899162   1.000000
     38         24.165709   0.000000
     39         23.502311   0.000000
     40         29.541559   0.000000
     41         19.702225   0.000000
     42         22.861518   0.000000
     43         19.983443   0.000000
     44         27.138274   0.000000
     45         24.762261   0.000000
     46         24.165720   0.000000
     47         19.992354   0.000000
     48         19.700002   0.000000
     49         26.030973   0.000000
     50         26.831731   0.000000
     51         28.023541   0.000000
     52         18.229013   0.000000
     53         20.910899   0.000000
     54         16.351670   1.000000
     55         19.540766   0.000000
     56         18.844440   0.000000
 
  0.1666667E+00  0.1666667E+00  0.0000000E+00  0.8333333E-01
      1         23.907537   0.000000
      2         12.190015   1.000000
      3         25.763299   0.000000
      4         16.208471   1.000000
      5         14.802850   1.000000
      6          8.683462   1.000000
      7          6.813800   1.000000
      8         27.349690   0.000000
      9         12.901861   1.000000
     10          7.786240   1.000000
     11          9.847232   1.000000
     12          7.824998   1.000000
     13         11.898458   1.000000
     14          6.879126   1.000000
     15          8.659973   1.000000
     16         10.236904   1.000000
     17          7.975127   1.000000
     18         16.200177   1.000000
     19         18.520142   0.000000
     20         10.440259   1.000000
     21         11.855755   1.000000
     22         25.411189   0.000000
     23          7.650444   1.000000
     24          9.181247   1.000000
     25         10.585774   1.000000
     26         13.359383   1.000000
     27          9.490453   1.000000
     28         27.760975   0.000000
     29         10.726934   1.000000
     30          7.874583   1.000000
     31         28.920487   0.000000
     32         18.583935   0.000000
     33          7.143499   1.000000
     34         10.159179   1.000000
     35          9.680353   1.000000
     36          8.386191   1.000000
     37          8.013728   1.000000
     38         12.965295   1.000000
     39         27.211063   0.000000
     40          7.792667   1.000000
     41          9.297582   1.000000
     42          8.067591   1.000000
     43          7.998785   1.000000
     44         12.349715   1.000000
     45          9.814070   1.000000
     46          8.940230   1.000000
     47          9.587132   1.000000
     48         10.908067   1.000000
     49         11.834838   1.000000
     50         15.802655   1.000000
     51         11.417138   1.000000
     52         10.529633   1.000000
     53         31.554575   0.000000
     54         30.437407   0.000000
     55         22.191671   0.000000
     56         13.417405   1.000000
 
  0.3333333E+00  0.1666667E+00  0.0000000E+00  0.1666667E+00
      1         21.884622   0.000000
      2         27.286403   0.000000
      3         20.338509   0.000000
      4         23.407184   0.000000
      5         21.048391   0.000000
      6         20.580369   0.000000
      7         26.041723   0.000000
      8         18.146122   0.000000
      9         16.633801   1.000000
     10         19.764962   0.000000
     11         21.489196   0.000000
     12         24.935479   0.000000
     13         19.202077   0.000000
     14         21.289754   0.000000
     15         20.784984   0.000000
     16         24.331234   0.000000
     17         20.932439   0.000000
     18         21.552490   0.000000
     19         21.041450   0.000000
     20         25.077008   0.000000
     21         23.603057   0.000000
     22         20.783598   0.000000
     23         24.049101   0.000000
     24         25.062630   0.000000
     25         17.293695   1.000000
     26         19.917441   0.000000
     27         18.006177   0.000000
     28         24.772871   0.000000
     29         26.906479   0.000000
     30         21.636231   0.000000
     31         21.473168   0.000000
     32         36.515471   0.000000
     33         17.068519   1.000000
     34         21.424975   0.000000
     35         17.363163   1.000000
     36         22.430734   0.000000
     37         20.428935   0.000000
     38         25.696024   0.000000
     39         20.759387   0.000000
     40         26.220432   0.000000
     41         23.652343   0.000000
     42         27.120583   0.000000
     43         23.924915   0.000000
     44         19.841077   0.000000
     45         25.735166   0.000000
     46         26.011254   0.000000
     47         28.011381   0.000000
     48         20.186497   0.000000
     49         21.580999   0.000000
     50         17.752055   0.025476
     51         18.505866   0.000000
     52         20.556374   0.000000
     53         19.604108   0.000000
     54         26.037148   0.000000
     55         18.609754   0.000000
     56         18.695857   0.000000
 
  0.3333333E+00  0.3333333E+00  0.0000000E+00  0.2777778E-01
      1         23.894152   0.000000
      2         25.099851   0.000000
      3         31.513299   0.000000
      4         24.956401   0.000000
      5         27.981686   0.000000
      6         31.890007   0.000000
      7         27.544071   0.000000
      8         25.042506   0.000000
      9         25.661178   0.000000
     10         20.485099   0.000000
     11         26.973114   0.000000
     12         23.300735   0.000000
     13         24.111101   0.000000
     14         27.983297   0.000000
     15         24.767057   0.000000
     16         27.306011   0.000000
     17         27.303602   0.000000
     18         28.383647   0.000000
     19         25.641767   0.000000
     20         24.018482   0.000000
     21         26.862414   0.000000
     22         28.571717   0.000000
     23         27.738864   0.000000
     24         26.404867   0.000000
     25         27.159829   0.000000
     26         23.815272   0.000000
     27         22.844097   0.000000
     28         27.730876   0.000000
     29         24.047546   0.000000
     30         35.385600   0.000000
     31         22.615519   0.000000
     32         28.414595   0.000000
     33         23.958278   0.000000
     34         27.590975   0.000000
     35         24.653166   0.000000
     36         23.570760   0.000000
     37         27.615117   0.000000
     38         28.755871   0.000000
     39         26.878118   0.000000
     40         29.476481   0.000000
     41         24.876718   0.000000
     42         26.275247   0.000000
     43         28.165596   0.000000
     44         28.172504   0.000000
     45         28.138375   0.000000
     46         27.221080   0.000000
     47         27.050930   0.000000
     48         29.155774   0.000000
     49         23.154848   0.000000
     50         29.894886   0.000000
     51         25.013094   0.000000
     52         21.782734   0.000000
     53         24.143732   0.000000
     54         29.139085   0.000000
     55         23.425881   0.000000
     56         27.312349   0.000000
 
  0.0000000E+00 -0.8271806E-24  0.5000000E+00  0.1388889E-01
      1          0.363976   1.000000
      2          0.324150   1.000000
      3          0.611718   1.000000
      4          0.355562   1.000000
      5          0.359792   1.000000
      6          0.546856   1.000000
      7          0.660148   1.000000
      8          0.359328   1.000000
      9          8.259845   1.000000
     10          0.462891   1.000000
     11          0.293947   1.000000
     12          0.308609   1.000000
     13          0.365635   1.000000
     14          0.381718   1.000000
     15          0.512319   1.000000
     16          2.142563   1.000000
     17          0.605344   1.000000
     18          0.883585   1.000000
     19          1.414568   1.000000
     20          0.660248   1.000000
     21          0.326054   1.000000
     22          0.317455   1.000000
     23          0.749483   1.000000
     24          0.509929   1.000000
     25          0.517210   1.000000
     26          0.378967   1.000000
     27          0.855061   1.000000
     28          0.367777   1.000000
     29          1.355478   1.000000
     30          3.792312   1.000000
     31          0.327381   1.000000
     32          0.364918   1.000000
     33          0.383430   1.000000
     34          0.398458   1.000000
     35          0.350560   1.000000
     36          0.316728   1.000000
     37          0.397411   1.000000
     38          0.300811   1.000000
     39          0.526513   1.000000
     40          0.373644   1.000000
     41          0.328205   1.000000
     42          0.303601   1.000000
     43          0.707458   1.000000
     44          0.579419   1.000000
     45          0.411995   1.000000
     46          0.617725   1.000000
     47          0.400701   1.000000
     48          1.449438   1.000000
     49          0.655732   1.000000
     50          0.856053   1.000000
     51          0.339167   1.000000
     52          0.412748   1.000000
     53          0.321241   1.000000
     54          0.418269   1.000000
     55          0.526821   1.000000
     56          1.860194   1.000000
 
  0.1666667E+00  0.2211152E-16  0.5000000E+00  0.8333333E-01
      1          2.955323   1.000000
      2          2.912235   1.000000
      3          3.068798   1.000000
      4          1.797644   1.000000
      5          2.339934   1.000000
      6          2.183979   1.000000
      7          6.131046   1.000000
      8          1.940758   1.000000
      9          1.972600   1.000000
     10          4.070428   1.000000
     11          2.250962   1.000000
     12          2.455607   1.000000
     13          4.795029   1.000000
     14          3.868213   1.000000
     15          2.101065   1.000000
     16          3.666577   1.000000
     17          4.497795   1.000000
     18          5.619003   1.000000
     19          2.967837   1.000000
     20          9.669486   1.000000
     21          2.389147   1.000000
     22         24.176790   0.000000
     23          2.892170   1.000000
     24          5.460442   1.000000
     25          2.342038   1.000000
     26          2.016215   1.000000
     27          6.300932   1.000000
     28          4.130049   1.000000
     29          2.123683   1.000000
     30          4.641564   1.000000
     31          5.619545   1.000000
     32          3.260520   1.000000
     33          2.065635   1.000000
     34          6.405339   1.000000
     35          2.686708   1.000000
     36          4.191751   1.000000
     37          1.958215   1.000000
     38          1.736476   1.000000
     39          1.925607   1.000000
     40          2.271552   1.000000
     41         12.914938   1.000000
     42         19.682051   0.000000
     43          4.350997   1.000000
     44          2.240215   1.000000
     45          6.043733   1.000000
     46          2.661452   1.000000
     47          4.175749   1.000000
     48          3.052495   1.000000
     49          2.779198   1.000000
     50          3.715202   1.000000
     51          3.125991   1.000000
     52          2.092995   1.000000
     53          2.171308   1.000000
     54          8.753761   1.000000
     55          2.818579   1.000000
     56          1.875295   1.000000
 
  0.3333333E+00  0.2211152E-16  0.5000000E+00  0.8333333E-01
      1         14.301432   1.000000
      2         11.965794   1.000000
      3         12.614923   1.000000
      4         12.610410   1.000000
      5         14.673434   1.000000
      6         15.053959   1.000000
      7         30.660571   0.000000
      8         11.818065   1.000000
      9         14.516435   1.000000
     10         13.369303   1.000000
     11         27.060299   0.000000
     12         14.460764   1.000000
     13         11.919612   1.000000
     14         14.508463   1.000000
     15         26.621881   0.000000
     16         21.812032   0.000000
     17         13.981101   1.000000
     18          9.680583   1.000000
     19         11.829521   1.000000
     20         11.816491   1.000000
     21         20.588659   0.000000
     22         29.554701   0.000000
     23         22.223386   0.000000
     24         25.329454   0.000000
     25          9.909025   1.000000
     26         10.737349   1.000000
     27         12.198412   1.000000
     28         29.564603   0.000000
     29         10.994522   1.000000
     30         11.662982   1.000000
     31         10.985944   1.000000
     32         12.761061   1.000000
     33         15.188996   1.000000
     34         10.430401   1.000000
     35         12.472560   1.000000
     36         12.754976   1.000000
     37         26.410185   0.000000
     38         10.226335   1.000000
     39         13.342654   1.000000
     40         12.833774   1.000000
     41         10.004140   1.000000
     42         14.575943   1.000000
     43         11.069720   1.000000
     44         14.864056   1.000000
     45         23.258406   0.000000
     46         13.634494   1.000000
     47         12.400664   1.000000
     48         12.545068   1.000000
     49         28.365854   0.000000
     50         15.819016   1.000000
     51         28.962824   0.000000
     52         11.214238   1.000000
     53         20.419140   0.000000
     54         16.311900   1.000000
     55         23.247050   0.000000
     56         10.849083   1.000000
 
  0.5000000E+00 -0.6115521E-16  0.5000000E+00  0.4166667E-01
      1         25.179164   0.000000
      2         21.416356   0.000000
      3         22.830758   0.000000
      4         19.417723   0.000000
      5         22.990359   0.000000
      6         25.991174   0.000000
      7         25.769993   0.000000
      8         19.005504   0.000000
      9         25.031566   0.000000
     10         21.358794   0.000000
     11         34.028728   0.000000
     12         23.841336   0.000000
     13         20.926888   0.000000
     14         24.329738   0.000000
     15         28.364684   0.000000
     16         24.421153   0.000000
     17         25.253674   0.000000
     18         25.414108   0.000000
     19         22.833312   0.000000
     20         25.663019   0.000000
     21         22.004946   0.000000
     22         23.025865   0.000000
     23         19.864302   0.000000
     24         21.050621   0.000000
     25         23.675321   0.000000
     26         21.876065   0.000000
     27         20.849767   0.000000
     28         20.670072   0.000000
     29         17.237033   1.000000
     30         29.643599   0.000000
     31         18.554020   0.000000
     32         23.701211   0.000000
     33         19.080960   0.000000
     34         23.241748   0.000000
     35         21.440267   0.000000
     36         25.305385   0.000000
     37         31.884662   0.000000
     38         24.535577   0.000000
     39         19.401662   0.000000
     40         22.886173   0.000000
     41         25.186088   0.000000
     42         19.711420   0.000000
     43         28.406646   0.000000
     44         18.152232   0.000000
     45         24.199875   0.000000
     46         27.337489   0.000000
     47         22.780716   0.000000
     48         21.285625   0.000000
     49         20.389326   0.000000
     50         21.808618   0.000000
     51         20.679368   0.000000
     52         27.130161   0.000000
     53         26.095293   0.000000
     54         20.714901   0.000000
     55         25.002456   0.000000
     56         28.688684   0.000000
 
  0.1666667E+00  0.1666667E+00  0.5000000E+00  0.8333333E-01
      1         11.160699   1.000000
      2          6.757852   1.000000
      3         16.189716   1.000000
      4         10.836207   1.000000
      5         14.298753   1.000000
      6          9.894530   1.000000
      7         12.804394   1.000000
      8         10.674909   1.000000
      9         13.136380   1.000000
     10          9.096780   1.000000
     11         16.926944   1.000000
     12         27.173826   0.000000
     13          9.723933   1.000000
     14          7.702423   1.000000
     15         22.921418   0.000000
     16         18.453709   0.000000
     17         19.868343   0.000000
     18         11.198435   1.000000
     19          8.769728   1.000000
     20          7.498519   1.000000
     21         10.610372   1.000000
     22         13.300059   1.000000
     23         10.757306   1.000000
     24          8.244155   1.000000
     25          6.343963   1.000000
     26         11.240527   1.000000
     27         12.474857   1.000000
     28         19.656061   0.000000
     29         17.353864   1.000000
     30          9.948195   1.000000
     31          7.841957   1.000000
     32         14.559270   1.000000
     33          8.422011   1.000000
     34         10.006838   1.000000
     35         14.726883   1.000000
     36          9.982317   1.000000
     37          7.219013   1.000000
     38         10.728214   1.000000
     39          9.967587   1.000000
     40          9.788866   1.000000
     41         11.225998   1.000000
     42         10.820616   1.000000
     43         27.765793   0.000000
     44          9.349532   1.000000
     45         11.823220   1.000000
     46         12.354199   1.000000
     47         12.281575   1.000000
     48         11.622836   1.000000
     49         12.648605   1.000000
     50         10.403345   1.000000
     51          6.601875   1.000000
     52          9.316425   1.000000
     53         10.797117   1.000000
     54         15.971092   1.000000
     55          9.464824   1.000000
     56         13.539584   1.000000
 
  0.3333333E+00  0.1666667E+00  0.5000000E+00  0.1666667E+00
      1         23.900539   0.000000
      2         26.408060   0.000000
      3         22.815384   0.000000
      4         23.023771   0.000000
      5         24.935204   0.000000
      6         25.142864   0.000000
      7         35.234236   0.000000
      8         17.928403   0.000000
      9         21.237011   0.000000
     10         23.959723   0.000000
     11         27.506412   0.000000
     12         24.180107   0.000000
     13         21.583589   0.000000
     14         24.333460   0.000000
     15         21.292496   0.000000
     16         22.790309   0.000000
     17         23.617176   0.000000
     18         20.117107   0.000000
     19         21.614513   0.000000
     20         21.888162   0.000000
     21         21.504491   0.000000
     22         20.331063   0.000000
     23         23.146403   0.000000
     24         17.936700   0.000000
     25         23.046224   0.000000
     26         22.629742   0.000000
     27         21.961302   0.000000
     28         24.075446   0.000000
     29         19.160020   0.000000
     30         19.379261   0.000000
     31         21.033121   0.000000
     32         26.603148   0.000000
     33         22.660363   0.000000
     34         20.252651   0.000000
     35         21.603591   0.000000
     36         31.324406   0.000000
     37         21.652161   0.000000
     38         23.287467   0.000000
     39         20.947209   0.000000
     40         21.232084   0.000000
     41         29.370229   0.000000
     42         30.226251   0.000000
     43         24.172228   0.000000
     44         22.121359   0.000000
     45         27.984209   0.000000
     46         21.562227   0.000000
     47         19.624852   0.000000
     48         25.402889   0.000000
     49         25.115485   0.000000
     50         20.261139   0.000000
     51         20.126985   0.000000
     52         23.715404   0.000000
     53         24.137678   0.000000
     54         18.101815   0.000000
     55         18.660766   0.000000
     56         28.976395   0.000000
 
  0.3333333E+00  0.3333333E+00  0.5000000E+00  0.2777778E-01
      1         24.068877   0.000000
      2         25.477921   0.000000
      3         26.158653   0.000000
      4         22.877084   0.000000
      5         21.792850   0.000000
      6         25.611877   0.000000
      7         24.025148   0.000000
      8         27.143096   0.000000
      9         24.032461   0.000000
     10         21.401898   0.000000
     11         20.993708   0.000000
     12         25.436895   0.000000
     13         30.178437   0.000000
     14         21.100606   0.000000
     15         25.244545   0.000000
     16         23.663028   0.000000
     17         22.475904   0.000000
     18         26.159433   0.000000
     19         30.892868   0.000000
     20         23.918558   0.000000
     21         24.222238   0.000000
     22         22.534861   0.000000
     23         25.321108   0.000000
     24         30.634262   0.000000
     25         28.300834   0.000000
     26         23.784450   0.000000
     27         30.592467   0.000000
     28         29.765017   0.000000
     29         26.488741   0.000000
     30         21.980059   0.000000
     31         23.595400   0.000000
     32         24.439444   0.000000
     33         37.404404   0.000000
     34         24.639571   0.000000
     35         29.310387   0.000000
     36         21.783217   0.000000
     37         28.263995   0.000000
     38         25.244426   0.000000
     39         32.091910   0.000000
     40         23.492892   0.000000
     41         24.543801   0.000000
     42         25.079985   0.000000
     43         26.291806   0.000000
     44         24.764926   0.000000
     45         30.189352   0.000000
     46         26.705470   0.000000
     47         31.759026   0.000000
     48         23.621736   0.000000
     49         33.520552   0.000000
     50         20.518294   0.000000
     51         22.887582   0.000000
     52         24.058628   0.000000
     53         25.989082   0.000000