       N       E                     dE             d eps       ncg     rms          rms(c)
NONE   1     0.789876182798E+03    0.78988E+03    0.00000E+00     0   0.000E+00
   1 F= 0.78987618E+03 E0= 0.78987860E+03  d E =-.482745E-02
