 vasp.6.5.1 10Mar25 (build Jul 04 2025 14:44:13) complex                        
  
 executed on             LinuxIFC date 2025.09.30  16:54:51
 running   28 mpi-ranks, with    1 threads/rank, on    1 nodes
 distrk:  each k-point on   28 cores,    1 groups
 distr:  one band on NCORE=   1 cores,   28 groups


--------------------------------------------------------------------------------------------------------


 INCAR:
   EDIFF = 1e-06
   SYSTEM = bulk MoTe2
   ISMEAR = 0
   SIGMA = 0.05
   IVDW = 11
   LMAXMIX = 4
   LASPH = .TRUE.
   ALGO = None
   NELM = 1
   LWAVE = .FALSE.
   LCHARG = .FALSE.

 POTCAR:    PAW_PBE Mo_sv 02Feb2006               
 POTCAR:    PAW_PBE Te 08Apr2002                  
 POTCAR:    PAW_PBE Mo_sv 02Feb2006               
   VRHFIN =Mo: 4p5s4d                                                                               
   LEXCH  = PE                                                                                      
   EATOM  =  1862.2866 eV,  136.8742 Ry                                                             
                                                                                                    
   TITEL  = PAW_PBE Mo_sv 02Feb2006                                                                 
   LULTRA =        F    use ultrasoft PP ?                                                          
   IUNSCR =        1    unscreen: 0-lin 1-nonlin 2-no                                               
   RPACOR =    2.200    partial core radius                                                         
   POMASS =   95.940; ZVAL   =   14.000    mass and valenz                                          
   RCORE  =    2.500    outmost cutoff radius                                                       
   RWIGS  =    2.750; RWIGS  =    1.455    wigner-seitz radius (au A)                               
   ENMAX  =  242.676; ENMIN  =  182.007 eV                                                          
   ICORE  =        3    local potential                                                             
   LCOR   =        T    correct aug charges                                                         
   LPAW   =        T    paw PP                                                                      
   EAUG   =  446.014                                                                                
   DEXC   =    0.000                                                                                
   RMAX   =    2.563    core radius for proj-oper                                                   
   RAUG   =    1.300    factor for augmentation sphere                                              
   RDEP   =    2.641    radius for radial grids                                                     
   RDEPT  =    2.031    core radius for aug-charge                                                  
                                                                                                    
   Atomic configuration                                                                             
   11 entries                                                                                       
     n  l   j            E        occ.                                                              
     1  0  0.50    -19819.0341   2.0000                                                             
     2  0  0.50     -2799.0127   2.0000                                                             
     2  1  1.50     -2502.0276   6.0000                                                             
     3  0  0.50      -476.4449   2.0000                                                             
     3  1  1.50      -379.1496   6.0000                                                             
     3  2  2.50      -220.9367  10.0000                                                             
     4  0  0.50       -64.3378   2.0000                                                             
     5  0  0.50        -4.0862   1.0000                                                             
     4  1  1.50       -38.4773   6.0000                                                             
     4  2  2.50        -3.7535   5.0000                                                             
     4  3  2.50        -1.3606   0.0000                                                             
   Description                                                                                      
     l       E           TYP  RCUT    TYP  RCUT                                                     
     0    -64.3377829     23  2.100                                                                 
     0     -4.0861640     23  2.400                                                                 
     1    -38.4772993     23  2.100                                                                 
     1     13.6058260     23  2.100                                                                 
     2     -3.7534941     23  2.400                                                                 
     2     -5.1140767     23  2.400                                                                 
     3     -4.0817478     23  2.500                                                                 
  local pseudopotential read in
  partial core-charges read in
  partial kinetic energy density read in
  atomic valenz-charges read in
  non local Contribution for L=           0  read in
    real space projection operators read in
  non local Contribution for L=           0  read in
    real space projection operators read in
  non local Contribution for L=           1  read in
    real space projection operators read in
  non local Contribution for L=           1  read in
    real space projection operators read in
  non local Contribution for L=           2  read in
    real space projection operators read in
  non local Contribution for L=           2  read in
    real space projection operators read in
    PAW grid and wavefunctions read in
 
   number of l-projection  operators is LMAX  =           6
   number of lm-projection operators is LMMAX =          18
 
 POTCAR:    PAW_PBE Te 08Apr2002                  
   VRHFIN =Te: s2p4                                                                                 
   LEXCH  = PE                                                                                      
   EATOM  =   223.2721 eV,   16.4100 Ry                                                             
                                                                                                    
   TITEL  = PAW_PBE Te 08Apr2002                                                                    
   LULTRA =        F    use ultrasoft PP ?                                                          
   IUNSCR =        1    unscreen: 0-lin 1-nonlin 2-no                                               
   RPACOR =    2.200    partial core radius                                                         
   POMASS =  127.600; ZVAL   =    6.000    mass and valenz                                          
   RCORE  =    2.300    outmost cutoff radius                                                       
   RWIGS  =    2.900; RWIGS  =    1.535    wigner-seitz radius (au A)                               
   ENMAX  =  174.982; ENMIN  =  131.236 eV                                                          
   ICORE  =        3    local potential                                                             
   LCOR   =        T    correct aug charges                                                         
   LPAW   =        T    paw PP                                                                      
   EAUG   =  368.792                                                                                
   DEXC   =    0.000                                                                                
   RMAX   =    2.345    core radius for proj-oper                                                   
   RAUG   =    1.300    factor for augmentation sphere                                              
   RDEP   =    2.397    radius for radial grids                                                     
   RDEPT  =    2.174    core radius for aug-charge                                                  
                                                                                                    
   Atomic configuration                                                                             
   13 entries                                                                                       
     n  l   j            E        occ.                                                              
     1  0  0.50    -31621.2075   2.0000                                                             
     2  0  0.50     -4848.7941   2.0000                                                             
     2  1  1.50     -4352.1960   6.0000                                                             
     3  0  0.50      -964.9612   2.0000                                                             
     3  1  1.50      -803.6179   6.0000                                                             
     3  2  2.50      -559.8710  10.0000                                                             
     4  0  0.50      -164.3522   2.0000                                                             
     4  1  1.50      -114.3756   6.0000                                                             
     4  2  2.50       -41.6483  10.0000                                                             
     5  0  0.50       -15.1072   2.0000                                                             
     5  1  0.50        -5.9526   4.0000                                                             
     5  2  1.50        -5.4423   0.0000                                                             
     4  3  2.50        -5.4423   0.0000                                                             
   Description                                                                                      
     l       E           TYP  RCUT    TYP  RCUT                                                     
     0    -15.1072389     23  2.300                                                                 
     0    -16.4678215     23  2.300                                                                 
     1     -5.9526306     23  2.300                                                                 
     1     -2.4873968     23  2.300                                                                 
     2     -5.4423304     23  2.300                                                                 
     3     -1.3605826     23  2.300                                                                 
  local pseudopotential read in
  partial core-charges read in
  partial kinetic energy density read in
  atomic valenz-charges read in
  non local Contribution for L=           0  read in
    real space projection operators read in
  non local Contribution for L=           0  read in
    real space projection operators read in
  non local Contribution for L=           1  read in
    real space projection operators read in
  non local Contribution for L=           1  read in
    real space projection operators read in
  non local Contribution for L=           2  read in
    real space projection operators read in
    PAW grid and wavefunctions read in
 
   number of l-projection  operators is LMAX  =           5
   number of lm-projection operators is LMMAX =          13
 
  PAW_PBE Mo_sv 02Feb2006               :
 energy of atom  1       EATOM=-1862.2866
 kinetic energy error for atom=    0.1354 (will be added to EATOM!!)
  PAW_PBE Te 08Apr2002                  :
 energy of atom  2       EATOM= -223.2721
 kinetic energy error for atom=    0.0034 (will be added to EATOM!!)
 
 
 POSCAR: Mo Te2
  positions in direct lattice
  velocities in cartesian coordinates
 IVDW         = 11
 VDW_S6       =    1.0000
 VDW_S8       =    0.7220
 VDW_SR       =    1.2170
 VDW_RADIUS   =   50.2022 A
 VDW_CNRADIUS =   21.1671 A


 exchange-correlation table for PE
   RHO(1)=    0.500       N(1)  =     2000
   RHO(2)=  100.500       N(2)  =     4000
 


--------------------------------------------------------------------------------------------------------


 ion  position               nearest neighbor table
   1  0.333  0.667  0.250-   4 2.72   5 2.72   5 2.72   4 2.72   4 2.72   5 2.72
   2  0.667  0.333  0.750-   3 2.72   6 2.72   6 2.72   3 2.72   3 2.72   6 2.72
   3  0.333  0.667  0.621-   2 2.72   2 2.72   2 2.72   6 3.63
   4  0.667  0.333  0.379-   1 2.72   1 2.72   1 2.72   5 3.63
   5  0.667  0.333  0.121-   1 2.72   1 2.72   1 2.72   4 3.63
   6  0.333  0.667  0.879-   2 2.72   2 2.72   2 2.72   3 3.63
 
  LATTYP: Found a hexagonal cell.
 ALAT       =     3.5189812207
 C/A-ratio  =     3.9889231821
  
  Lattice vectors:
  
 A1 = (   3.5189812207,   0.0000000668,   0.0000002911)
 A2 = (  -1.7594905620,   3.0475271595,   0.0000001437)
 A3 = (   0.0000000000,   0.0000000000,  14.0369457690)


Analysis of symmetry for initial positions (statically):
=====================================================================
 Subroutine PRICEL returns:
 Original cell was already a primitive cell.
 

 Routine SETGRP: Setting up the symmetry group for a 
 hexagonal supercell.


 Subroutine GETGRP returns: Found 24 space group operations
 (whereof 12 operations were pure point group operations)
 out of a pool of 24 trial point group operations.


The static configuration has the point symmetry D_3d.
 The point group associated with its full space group is D_6h.


Analysis of symmetry for dynamics (positions and initial velocities):
=====================================================================
 Subroutine PRICEL returns:
 Original cell was already a primitive cell.
 

 Routine SETGRP: Setting up the symmetry group for a 
 hexagonal supercell.


 Subroutine GETGRP returns: Found 24 space group operations
 (whereof 12 operations were pure point group operations)
 out of a pool of 24 trial point group operations.


The dynamic configuration has the point symmetry D_3d.
 The point group associated with its full space group is D_6h.


 Subroutine INISYM returns: Found 24 space group operations
 (whereof 12 operations are pure point group operations),
 and found     1 'primitive' translations


----------------------------------------------------------------------------------------

                                     Primitive cell                                     

  volume of cell :     150.5349

  direct lattice vectors                    reciprocal lattice vectors
     3.518981221  0.000000067  0.000000291     0.284173153  0.164067440  0.000000000
    -1.759490562  3.047527159  0.000000144    -0.000000006  0.328134890  0.000000000
     0.000000000  0.000000000 14.036945769    -0.000000006 -0.000000007  0.071240569

  length of vectors
     3.518981221  3.518981220 14.036945769     0.328134890  0.328134890  0.071240569

  position of ions in fractional coordinates (direct lattice)
     0.333333325  0.666666652  0.250000000
     0.666666645  0.333333348  0.750000000
     0.333333294  0.666666676  0.620745780
     0.666666676  0.333333324  0.379254220
     0.666666654  0.333333307  0.120745780
     0.333333316  0.666666693  0.879254220

  ion indices of the primitive-cell ions
   primitive index   ion index
                 1           1
                 2           2
                 3           3
                 4           4
                 5           5
                 6           6

----------------------------------------------------------------------------------------

 
 
 KPOINTS: 6x6x2                                   

Automatic generation of k-mesh.
 Grid dimensions read from file:
 generate k-points for:    6    6    2

 Generating k-lattice:

  Cartesian coordinates                     Fractional coordinates (reciprocal lattice)
     0.047362192  0.027344573  0.000000000     0.166666667  0.000000000  0.000000000
    -0.000000001  0.054689148  0.000000000     0.000000000  0.166666667  0.000000000
    -0.000000003 -0.000000003  0.035620284     0.000000000 -0.000000000  0.500000000

  Length of vectors
     0.054689148  0.054689148  0.035620284

  Shift w.r.t. Gamma in fractional coordinates (k-lattice)
     0.000000000  0.000000000  0.000000000

 
 Subroutine IBZKPT returns following result:
 ===========================================
 
 Found     14 irreducible k-points:
 
 Following reciprocal coordinates:
            Coordinates               Weight
  0.000000  0.000000  0.000000      1.000000
  0.166667  0.000000  0.000000      6.000000
  0.333333  0.000000  0.000000      6.000000
  0.500000 -0.000000  0.000000      3.000000
  0.166667  0.166667  0.000000      6.000000
  0.333333  0.166667  0.000000     12.000000
  0.333333  0.333333  0.000000      2.000000
  0.000000 -0.000000  0.500000      1.000000
  0.166667  0.000000  0.500000      6.000000
  0.333333  0.000000  0.500000      6.000000
  0.500000 -0.000000  0.500000      3.000000
  0.166667  0.166667  0.500000      6.000000
  0.333333  0.166667  0.500000     12.000000
  0.333333  0.333333  0.500000      2.000000
 
 Following cartesian coordinates:
            Coordinates               Weight
  0.000000  0.000000  0.000000      1.000000
  0.047362  0.027345  0.000000      6.000000
  0.094724  0.054689  0.000000      6.000000
  0.142087  0.082034  0.000000      3.000000
  0.047362  0.082034  0.000000      6.000000
  0.094724  0.109378  0.000000     12.000000
  0.094724  0.164067  0.000000      2.000000
 -0.000000 -0.000000  0.035620      1.000000
  0.047362  0.027345  0.035620      6.000000
  0.094724  0.054689  0.035620      6.000000
  0.142087  0.082034  0.035620      3.000000
  0.047362  0.082034  0.035620      6.000000
  0.094724  0.109378  0.035620     12.000000
  0.094724  0.164067  0.035620      2.000000
 


--------------------------------------------------------------------------------------------------------




 Dimension of arrays:
   k-points           NKPTS =     14   k-points in BZ     NKDIM =     14   number of bands    NBANDS=     56
   number of dos      NEDOS =    301   number of ions     NIONS =      6
   non local maximal  LDIM  =      6   non local SUM 2l+1 LMDIM =     18
   total plane-waves  NPLWV =  10584
   max r-space proj   IRMAX =      1   max aug-charges    IRDMAX=   4288
   dimension x,y,z NGX =    14 NGY =   14 NGZ =   54
   dimension x,y,z NGXF=    28 NGYF=   28 NGZF=  108
   support grid    NGXF=    28 NGYF=   28 NGZF=  108
   ions per type =               2   4
   NGX,Y,Z   is equivalent  to a cutoff of   6.61,  6.61,  6.40 a.u.
   NGXF,Y,Z  is equivalent  to a cutoff of  13.23, 13.23, 12.79 a.u.

 SYSTEM =  bulk MoTe2                              
 POSCAR =  Mo Te2                                  

 Startparameter for this run:
   NWRITE =      2    write-flag & timer
   PREC   = normal    normal or accurate (medium, high low for compatibility)
   ISTART =      0    job   : 0-new  1-cont  2-samecut
   ICHARG =      2    charge: 1-file 2-atom 10-const
   ISPIN  =      1    spin polarized calculation?
   LNONCOLLINEAR =      F non collinear calculations
   LSORBIT =      F    spin-orbit coupling
   INIWAV =      1    electr: 0-lowe 1-rand  2-diag
   LASPH  =      T    aspherical Exc in radial PAW
 Electronic Relaxation 1
   ENCUT  =  242.7 eV  17.84 Ry    4.22 a.u.   4.47  4.47 17.83*2*pi/ulx,y,z
   ENINI  =  242.7     initial cutoff
   ENAUG  =  446.0 eV  augmentation charge cutoff
   NELM   =      1;   NELMIN=  2; NELMDL= -5     # of ELM steps 
   EDIFF  = 0.1E-05   stopping-criterion for ELM
   LREAL  =      F    real-space projection
   NLSPLINE    = F    spline interpolate recip. space projectors
   LCOMPAT=      F    compatible to vasp.4.4
   GGA_COMPAT  = T    GGA compatible to vasp.4.4-vasp.4.6
   LMAXPAW     = -100 max onsite density
   LMAXMIX     =    4 max onsite mixed and CHGCAR
   VOSKOWN=      0    Vosko Wilk Nusair interpolation
   ROPT   =    0.00000   0.00000
 Ionic relaxation
   EDIFFG = 0.1E-04   stopping-criterion for IOM
   NSW    =      0    number of steps for IOM
   NBLOCK =      1;   KBLOCK =      1    inner block; outer block 
   IBRION =     -1    ionic relax: 0-MD 1-quasi-New 2-CG
   NFREE  =      0    steps in history (QN), initial steepest desc. (CG)
   ISIF   =      2    stress and relaxation
   IWAVPR =     10    prediction:  0-non 1-charg 2-wave 3-comb
   ISYM   =      2    0-nonsym 1-usesym 2-fastsym
   LCORR  =      T    Harris-Foulkes like correction to forces

   POTIM  = 0.5000    time-step for ionic-motion
   TEIN   =    0.0    initial temperature
   TEBEG  =    0.0;   TEEND  =   0.0 temperature during run
   SMASS  =  -3.00    Nose mass-parameter (am)
   estimated Nose-frequenzy (Omega)   =  0.10E-29 period in steps = 0.13E+47 mass=  -0.283E-27a.u.
   SCALEE = 1.0000    scale energy and forces
   NPACO  =    256;   APACO  = 10.0  distance and # of slots for P.C.
   PSTRESS=    0.0 pullay stress

  Mass of Ions in am
   POMASS =  95.94127.60
  Ionic Valenz
   ZVAL   =  14.00  6.00
  Atomic Wigner-Seitz radii
   RWIGS  =  -1.00 -1.00
  virtual crystal weights 
   VCA    =   1.00  1.00
   NELECT =      52.0000    total number of electrons
   NUPDOWN=      -1.0000    fix difference up-down

 DOS related values:
   EMIN   =  10.00;   EMAX   =-10.00  energy-range for DOS
   EFERMI =   0.00;   METHOD = LEGACY      
   ISMEAR =     0;   SIGMA  =   0.05  broadening in eV -4-tet -1-fermi 0-gaus
   EFERMI_NEDOS =   21; number of points for ismear=-14 and -15

 Electronic relaxation 2 (details)
   IALGO  =      2    algorithm
   LDIAG  =      T    sub-space diagonalisation (order eigenvalues)
   LSUBROT=      F    optimize rotation matrix (better conditioning)
   LROBUST=      F    robust break criterion during scf (extrapolated energy error)
   ISEARCH=      0    line search for conjugate gradient (0, 1=use gradient)
   TURBO    =      0    0=normal 1=particle mesh
   IRESTART =      0    0=no restart 2=restart with 2 vectors
   NREBOOT  =      0    no. of reboots
   NMIN     =      0    reboot dimension
   EREF     =   0.00    reference energy to select bands
   IMIX   =      4    mixing-type and parameters
     AMIX     =   0.40;   BMIX     =  1.00
     AMIX_MAG =   1.60;   BMIX_MAG =  1.00
     AMIN     =   0.10
     WC   =   100.;   INIMIX=   1;  MIXPRE=   1;  MAXMIX= -45

 Intra band minimization:
   WEIMIN = 0.0000     energy-eigenvalue tresh-hold
   EBREAK =  0.45E-08  absolut break condition
   DEPER  =   0.30     relativ break condition  

   TIME   =   0.40     timestep for ELM

  volume/ion in A,a.u.               =      25.09       169.31
  Fermi-wavevector in a.u.,A,eV,Ry     =   1.148674  2.170680 17.952242  1.319453
  Thomas-Fermi vector in A             =   2.285348
 
 Write flags
   LWAVE        =      F    write WAVECAR
   LDOWNSAMPLE  =      F    k-point downsampling of WAVECAR
   LCHARG       =      F    write CHGCAR
   LVTOT        =      F    write LOCPOT, total local potential
   LVHAR        =      F    write LOCPOT, Hartree potential only
   WRT_POTENTIAL= false  ! write potential to hdf5 file
   LELF         =      F    write electronic localiz. function (ELF)
   LORBIT       =      0    0 simple, 1 ext, 2 COOP (PROOUT), +10 PAW based schemes


 Python interface
   PLUGINS active      =      F    recompile with -DPLUGINS to activate
 
 Dipole corrections
   LMONO      =      F    monopole corrections only (constant potential shift)
   LDIPOL     =      F    correct potential (dipole corrections)
   IDIPOL     =      0    1-x, 2-y, 3-z, 4-all directions 
   EPSILON    =  1.0000000 bulk dielectric constant
   LVACPOTAV  =      F  vacuum potentials using an averaging scheme for the charge density
   VACPOTFLAT =  0.1000000 required flatness to determine vacuum potential
 
Coulomb truncation method
  LTRUNCATE          =      F  Coulomb kernel truncation to be used

 
 Exchange correlation treatment:
   GGA     = PE    functional components
   XC_C    = 1    coefficients multiplying the functional components
   LIBXC   =     F    Libxc                    
   VOSKOWN =     0    Vosko Wilk Nusair interpolation
   LHFCALC =     F    Hartree Fock is set to
   LHFONE  =     F    Hartree Fock one center treatment
   AEXX    =    0.0000 exact exchange contribution

 Parameters of functionals:
   PE:
     No parameter
 
 Van der Waals corrections
   IVDW    =    11    specifies the selected vdW correction

 Linear response parameters
   LEPSILON=     F    determine dielectric tensor
   LRPA    =     F    only Hartree local field effects (RPA)
   LNABLA  =     F    use nabla operator in PAW spheres
   LVEL    =     F    velocity operator in full k-point grid
   CSHIFT  =0.1000    complex shift for real part using Kramers Kronig
   OMEGAMAX=  -1.0    maximum frequency
   DEG_THRESHOLD= 0.2000000E-02 threshold for treating states as degnerate
   RTIME   =   -0.100 relaxation time in fs
  (WPLASMAI=    0.000 imaginary part of plasma frequency in eV, 0.658/RTIME)
   DFIELD  = 0.0000000 0.0000000 0.0000000 field for delta impulse in time
 
  Optional k-point grid parameters
   LKPOINTS_OPT  =     F    use optional k-point grid
   KPOINTS_OPT_MODE=     1    mode for optional k-point grid
 
 Orbital magnetization related:
   ORBITALMAG=     F  switch on orbital magnetization
   LCHIMAG   =     F  perturbation theory with respect to B field
   DQ        =  0.001000  dq finite difference perturbation B field
   LLRAUG    =     F  two centre corrections for induced B field
   LBONE     =     F  B-component reconstruction in AE one-centre
   LVGVCALC  =     T  calculate vGv susceptibility
   LVGVAPPL  =     F  apply vGv susceptibility instead of pGv for G=0

 Random number generation:
   RANDOM_GENERATOR = DEFAULT
   PCG_SEED         = not used


--------------------------------------------------------------------------------------------------------


 Static calculation
 charge density and potential will be updated during run
 non-spin polarized calculation
 None: do nothing, only one-electron occupancies are recalculated
    band-by band algorithm
 perform Loewdin sub-space diagonalisation
    ordering is kept fixed
    before iterative eigenvector-optimisation
 modified Broyden-mixing scheme, WC =      100.0
 initial mixing is a Kerker type mixing with AMIX =  0.4000 and BMIX =      1.0000
 Hartree-type preconditioning will be used
 using additional bands           30
 reciprocal scheme for non local part
 use partial core corrections
 calculate Harris-corrections to forces 
   (improved forces if not selfconsistent)
 use gradient corrections 
 use of overlap-Matrix (Vanderbilt PP)
 Gauss-broadening in eV      SIGMA  =   0.05


--------------------------------------------------------------------------------------------------------


  energy-cutoff  :      242.68
  volume of cell :      150.53
      direct lattice vectors                 reciprocal lattice vectors
     3.518981221  0.000000067  0.000000291     0.284173153  0.164067440  0.000000000
    -1.759490562  3.047527159  0.000000144    -0.000000006  0.328134890  0.000000000
     0.000000000  0.000000000 14.036945769    -0.000000006 -0.000000007  0.071240569

  length of vectors
     3.518981221  3.518981220 14.036945769     0.328134890  0.328134890  0.071240569


 
 k-points in units of 2pi/SCALE and weight: 6x6x2                                   
   0.00000000  0.00000000  0.00000000       0.014
   0.04736219  0.02734457  0.00000000       0.083
   0.09472438  0.05468915  0.00000000       0.083
   0.14208658  0.08203372  0.00000000       0.042
   0.04736219  0.08203372  0.00000000       0.083
   0.09472438  0.10937830  0.00000000       0.167
   0.09472438  0.16406744  0.00000000       0.028
  -0.00000000 -0.00000000  0.03562028       0.014
   0.04736219  0.02734457  0.03562028       0.083
   0.09472438  0.05468914  0.03562028       0.083
   0.14208657  0.08203372  0.03562028       0.042
   0.04736219  0.08203372  0.03562028       0.083
   0.09472438  0.10937829  0.03562028       0.167
   0.09472438  0.16406744  0.03562028       0.028
 
 k-points in reciprocal lattice and weights: 6x6x2                                   
   0.00000000  0.00000000  0.00000000       0.014
   0.16666667  0.00000000  0.00000000       0.083
   0.33333333  0.00000000  0.00000000       0.083
   0.50000000 -0.00000000  0.00000000       0.042
   0.16666667  0.16666667  0.00000000       0.083
   0.33333333  0.16666667  0.00000000       0.167
   0.33333333  0.33333333  0.00000000       0.028
   0.00000000 -0.00000000  0.50000000       0.014
   0.16666667  0.00000000  0.50000000       0.083
   0.33333333  0.00000000  0.50000000       0.083
   0.50000000 -0.00000000  0.50000000       0.042
   0.16666667  0.16666667  0.50000000       0.083
   0.33333333  0.16666667  0.50000000       0.167
   0.33333333  0.33333333  0.50000000       0.028
 
 position of ions in fractional coordinates (direct lattice) 
   0.33333333  0.66666665  0.25000000
   0.66666664  0.33333335  0.75000000
   0.33333329  0.66666668  0.62074578
   0.66666668  0.33333332  0.37925422
   0.66666665  0.33333331  0.12074578
   0.33333332  0.66666669  0.87925422
 
 position of ions in cartesian coordinates  (Angst):
   0.00000003  2.03168475  3.50923663
   1.75949052  1.01584248 10.52770957
  -0.00000012  2.03168482  8.71337504
   1.75949068  1.01584240  5.32357116
   1.75949063  1.01584235  1.69490221
  -0.00000007  2.03168487 12.34204400
 


--------------------------------------------------------------------------------------------------------


 k-point     1 :   0.0000 0.0000 0.0000  plane waves:    1325
 k-point     2 :   0.1667 0.0000 0.0000  plane waves:    1312
 k-point     3 :   0.3333 0.0000 0.0000  plane waves:    1300
 k-point     4 :   0.5000-0.0000 0.0000  plane waves:    1272
 k-point     5 :   0.1667 0.1667 0.0000  plane waves:    1307
 k-point     6 :   0.3333 0.1667 0.0000  plane waves:    1278
 k-point     7 :   0.3333 0.3333 0.0000  plane waves:    1284
 k-point     8 :   0.0000-0.0000 0.5000  plane waves:    1296
 k-point     9 :   0.1667 0.0000 0.5000  plane waves:    1310
 k-point    10 :   0.3333 0.0000 0.5000  plane waves:    1294
 k-point    11 :   0.5000-0.0000 0.5000  plane waves:    1280
 k-point    12 :   0.1667 0.1667 0.5000  plane waves:    1292
 k-point    13 :   0.3333 0.1667 0.5000  plane waves:    1284
 k-point    14 :   0.3333 0.3333 0.5000  plane waves:    1290

 maximum and minimum number of plane-waves per node :      1325     1272

 maximum number of plane-waves:      1325
 maximum index in each direction: 
   IXMAX=    4   IYMAX=    4   IZMAX=   17
   IXMIN=   -4   IYMIN=   -4   IZMIN=  -18


 serial   3D FFT for wavefunctions
 parallel 3D FFT for charge:
    minimum data exchange during FFTs selected (reduces bandwidth)


 total amount of memory used by VASP MPI-rank0    37040. kBytes
=======================================================================

   base                                    :      30000. kBytes
   nonl-proj                               :       5548. kBytes
   fftplans                                :        149. kBytes
   grid                                    :        598. kBytes
   one-center                              :         93. kBytes
   wavefun                                 :        652. kBytes
 
     INWAV:  cpu time      0.0000: real time      0.0000
 Broyden mixing: mesh for mixing (old mesh)
   NGX =  9   NGY =  9   NGZ = 35
  (NGX  = 28   NGY  = 28   NGZ  =108)
  gives a total of   2835 points

 initial charge density was supplied:
 charge density of overlapping atoms calculated
 number of electron      52.0000000 magnetization 
 keeping initial charge density in first step


--------------------------------------------------------------------------------------------------------


 Maximum index for augmentation-charges           69 (set IRDMAX)


--------------------------------------------------------------------------------------------------------


 First call to EWALD:  gamma=   0.333
 Maximum number of real-space cells   4x   4x   1
 Maximum number of reciprocal cells   2x   2x   6

    FEWALD:  cpu time      0.0009: real time      0.0009


--------------------------------------- Ionic step        1  -------------------------------------------




--------------------------------------- Iteration      1(   1)  ---------------------------------------


    POTLOK:  cpu time      0.0022: real time      0.0148
    SETDIJ:  cpu time      0.0521: real time      0.0539
    EDDIAG:  cpu time      0.0002: real time      0.0002
       DOS:  cpu time      0.0007: real time      0.0012
    --------------------------------------------
      LOOP:  cpu time      0.0555: real time      0.0703

 eigenvalue-minimisations  :     0
 total energy-change (2. order) : 0.7898762E+03  ( 0.0000000E+00)
 number of electron      52.0000000 magnetization 
 augmentation part       52.0000000 magnetization 

 Free energy of the ion-electron system (eV)
  ---------------------------------------------------
  alpha Z        PSCENC =        96.92262515
  Ewald energy   TEWEN  =     -2919.12777455
  -Hartree energ DENC   =     -1657.43049423
  -exchange      EXHF   =         0.00000000
  -V(xc)+E(xc)   XCENC  =        21.69616759
  PAW double counting   =      3826.61822168    -3635.71132862
  entropy T*S    EENTRO =        -0.00482745
  eigenvalues    EBANDS =       439.53636520
  atomic energy  EATOM  =      4617.37722804
  Solvation  Ediel_sol  =         0.00000000
  ---------------------------------------------------
  free energy    TOTEN  =       789.87618280 eV

  energy without entropy =      789.88101025  energy(sigma->0) =      789.87859653


--------------------------------------------------------------------------------------------------------




 average (electrostatic) potential at core
  the test charge radii are     1.0818  1.1897
  (the norm of the test charge is              1.0000)
       1 -72.0404       2 -72.0404       3 -86.3457       4 -86.3457       5 -86.3457
       6 -86.3457
 
 
 
 E-fermi :  17.6830     XC(G=0): -10.4155     alpha+bet :-13.6760

 WARNING: Could not determine fundamental gap because eigenvalues are not
     sorted.

 Fermi energy:        17.6830448314

 k-point     1 :       0.0000    0.0000    0.0000
  band No.  band energies     occupation 
      1       0.0538      2.00000
      2       0.1662      2.00000
      3       0.0589      2.00000
      4       0.2862      2.00000
      5       4.2486      2.00000
      6       0.0769      2.00000
      7       0.2285      2.00000
      8       0.0711      2.00000
      9       1.8024      2.00000
     10       0.1086      2.00000
     11       0.1251      2.00000
     12       3.0864      2.00000
     13       0.0976      2.00000
     14       1.0255      2.00000
     15       0.3995      2.00000
     16       0.4515      2.00000
     17       0.1768      2.00000
     18       0.2340      2.00000
     19       0.3072      2.00000
     20       3.3928      2.00000
     21       0.2192      2.00000
     22       1.8154      2.00000
     23       1.2600      2.00000
     24       0.1556      2.00000
     25       0.1668      2.00000
     26       2.9020      2.00000
     27       0.4248      2.00000
     28       0.1609      2.00000
     29       0.0940      2.00000
     30       4.8247      2.00000
     31       1.9884      2.00000
     32       0.2069      2.00000
     33       9.6889      2.00000
     34       0.4135      2.00000
     35       0.0823      2.00000
     36       0.9669      2.00000
     37       0.1403      2.00000
     38       0.5181      2.00000
     39       0.7049      2.00000
     40       1.2512      2.00000
     41       0.1704      2.00000
     42       0.0745      2.00000
     43       2.9972      2.00000
     44       0.0921      2.00000
     45       0.2042      2.00000
     46       0.0623      2.00000
     47       0.3677      2.00000
     48       0.4122      2.00000
     49       0.0789      2.00000
     50       4.5781      2.00000
     51       0.0920      2.00000
     52       0.6705      2.00000
     53       0.1148      2.00000
     54       0.0864      2.00000
     55       0.0615      2.00000
     56       0.3165      2.00000

 k-point     2 :       0.1667    0.0000    0.0000
  band No.  band energies     occupation 
      1       3.4632      2.00000
      2       1.4314      2.00000
      3       3.8709      2.00000
      4       1.4315      2.00000
      5       2.8969      2.00000
      6       2.1132      2.00000
      7       4.9252      2.00000
      8       2.6876      2.00000
      9       1.4210      2.00000
     10       1.3693      2.00000
     11       4.9887      2.00000
     12       1.9714      2.00000
     13       3.8884      2.00000
     14       1.7519      2.00000
     15      11.5222      2.00000
     16       1.5816      2.00000
     17       3.7360      2.00000
     18       4.5949      2.00000
     19       3.0636      2.00000
     20       1.8957      2.00000
     21       2.7098      2.00000
     22       2.0499      2.00000
     23       3.5647      2.00000
     24       1.7010      2.00000
     25       4.0213      2.00000
     26       5.5145      2.00000
     27       1.8195      2.00000
     28       6.2767      2.00000
     29       3.7897      2.00000
     30       7.0335      2.00000
     31       3.6797      2.00000
     32       2.3440      2.00000
     33       1.7525      2.00000
     34       4.8928      2.00000
     35       5.5939      2.00000
     36      11.0537      2.00000
     37       1.7926      2.00000
     38       4.3017      2.00000
     39      23.2051      0.00000
     40       1.8121      2.00000
     41      15.6695      2.00000
     42       4.6502      2.00000
     43       1.8928      2.00000
     44       1.7249      2.00000
     45       1.5576      2.00000
     46       3.9920      2.00000
     47       2.0851      2.00000
     48       5.9019      2.00000
     49       1.2947      2.00000
     50       1.6533      2.00000
     51       1.5275      2.00000
     52       2.4735      2.00000
     53       2.0541      2.00000
     54       4.1536      2.00000
     55       8.3713      2.00000
     56       2.1206      2.00000

 k-point     3 :       0.3333    0.0000    0.0000
  band No.  band energies     occupation 
      1      16.8868      2.00000
      2      14.7582      2.00000
      3      19.5634      0.00000
      4      18.2076      0.00000
      5      15.5402      2.00000
      6      15.6677      2.00000
      7      14.1593      2.00000
      8      11.6735      2.00000
      9      17.0931      2.00000
     10      13.5831      2.00000
     11      11.3400      2.00000
     12      20.6591      0.00000
     13      15.4871      2.00000
     14      21.2059      0.00000
     15      18.6431      0.00000
     16      15.3601      2.00000
     17      11.4195      2.00000
     18      12.7644      2.00000
     19      11.1726      2.00000
     20      10.3462      2.00000
     21       9.4763      2.00000
     22      10.9217      2.00000
     23      17.6518      1.62381
     24      14.5903      2.00000
     25      19.5762      0.00000
     26       9.6966      2.00000
     27       9.5669      2.00000
     28      12.9551      2.00000
     29      14.5917      2.00000
     30      18.4121      0.00000
     31      21.5907      0.00000
     32      14.9496      2.00000
     33      14.9655      2.00000
     34      28.6450      0.00000
     35      13.9556      2.00000
     36      25.8072      0.00000
     37      13.3365      2.00000
     38      22.3099      0.00000
     39      11.1188      2.00000
     40      14.6115      2.00000
     41      12.9437      2.00000
     42      17.0610      2.00000
     43      17.5769      1.99731
     44      20.2058      0.00000
     45      19.0386      0.00000
     46      19.8284      0.00000
     47      11.9502      2.00000
     48      15.7103      2.00000
     49      22.6145      0.00000
     50      15.2839      2.00000
     51      11.9710      2.00000
     52       8.7245      2.00000
     53      17.6867      0.91831
     54       8.4585      2.00000
     55      21.1590      0.00000
     56      14.5294      2.00000

 k-point     4 :       0.5000   -0.0000    0.0000
  band No.  band energies     occupation 
      1      23.1523      0.00000
      2      33.0868      0.00000
      3      21.9011      0.00000
      4      21.5140      0.00000
      5      21.5985      0.00000
      6      20.9011      0.00000
      7      18.7234      0.00000
      8      17.7521      0.05067
      9      16.6653      2.00000
     10      22.6642      0.00000
     11      21.8155      0.00000
     12      23.2550      0.00000
     13      24.8064      0.00000
     14      23.0057      0.00000
     15      26.3879      0.00000
     16      23.2930      0.00000
     17      20.8103      0.00000
     18      23.5968      0.00000
     19      21.8412      0.00000
     20      23.1045      0.00000
     21      25.1615      0.00000
     22      25.7216      0.00000
     23      19.8572      0.00000
     24      17.9078      0.00000
     25      24.5534      0.00000
     26      21.1755      0.00000
     27      25.4756      0.00000
     28      34.2712      0.00000
     29      24.3780      0.00000
     30      23.2510      0.00000
     31      34.0346      0.00000
     32      20.4852      0.00000
     33      21.7345      0.00000
     34      22.7693      0.00000
     35      21.1458      0.00000
     36      24.8391      0.00000
     37      15.8992      2.00000
     38      24.1657      0.00000
     39      23.5023      0.00000
     40      29.5416      0.00000
     41      19.7022      0.00000
     42      22.8615      0.00000
     43      19.9834      0.00000
     44      27.1383      0.00000
     45      24.7623      0.00000
     46      24.1657      0.00000
     47      19.9924      0.00000
     48      19.7000      0.00000
     49      26.0310      0.00000
     50      26.8317      0.00000
     51      28.0235      0.00000
     52      18.2290      0.00000
     53      20.9109      0.00000
     54      16.3517      2.00000
     55      19.5408      0.00000
     56      18.8444      0.00000

 k-point     5 :       0.1667    0.1667    0.0000
  band No.  band energies     occupation 
      1      23.9075      0.00000
      2      12.1900      2.00000
      3      25.7633      0.00000
      4      16.2085      2.00000
      5      14.8029      2.00000
      6       8.6835      2.00000
      7       6.8138      2.00000
      8      27.3497      0.00000
      9      12.9019      2.00000
     10       7.7862      2.00000
     11       9.8472      2.00000
     12       7.8250      2.00000
     13      11.8985      2.00000
     14       6.8791      2.00000
     15       8.6600      2.00000
     16      10.2369      2.00000
     17       7.9751      2.00000
     18      16.2002      2.00000
     19      18.5201      0.00000
     20      10.4403      2.00000
     21      11.8558      2.00000
     22      25.4112      0.00000
     23       7.6504      2.00000
     24       9.1812      2.00000
     25      10.5858      2.00000
     26      13.3594      2.00000
     27       9.4905      2.00000
     28      27.7610      0.00000
     29      10.7269      2.00000
     30       7.8746      2.00000
     31      28.9205      0.00000
     32      18.5839      0.00000
     33       7.1435      2.00000
     34      10.1592      2.00000
     35       9.6804      2.00000
     36       8.3862      2.00000
     37       8.0137      2.00000
     38      12.9653      2.00000
     39      27.2111      0.00000
     40       7.7927      2.00000
     41       9.2976      2.00000
     42       8.0676      2.00000
     43       7.9988      2.00000
     44      12.3497      2.00000
     45       9.8141      2.00000
     46       8.9402      2.00000
     47       9.5871      2.00000
     48      10.9081      2.00000
     49      11.8348      2.00000
     50      15.8027      2.00000
     51      11.4171      2.00000
     52      10.5296      2.00000
     53      31.5546      0.00000
     54      30.4374      0.00000
     55      22.1917      0.00000
     56      13.4174      2.00000

 k-point     6 :       0.3333    0.1667    0.0000
  band No.  band energies     occupation 
      1      21.8846      0.00000
      2      27.2864      0.00000
      3      20.3385      0.00000
      4      23.4072      0.00000
      5      21.0484      0.00000
      6      20.5804      0.00000
      7      26.0417      0.00000
      8      18.1461      0.00000
      9      16.6338      2.00000
     10      19.7650      0.00000
     11      21.4892      0.00000
     12      24.9355      0.00000
     13      19.2021      0.00000
     14      21.2898      0.00000
     15      20.7850      0.00000
     16      24.3312      0.00000
     17      20.9324      0.00000
     18      21.5525      0.00000
     19      21.0414      0.00000
     20      25.0770      0.00000
     21      23.6031      0.00000
     22      20.7836      0.00000
     23      24.0491      0.00000
     24      25.0626      0.00000
     25      17.2937      2.00000
     26      19.9174      0.00000
     27      18.0062      0.00000
     28      24.7729      0.00000
     29      26.9065      0.00000
     30      21.6362      0.00000
     31      21.4732      0.00000
     32      36.5155      0.00000
     33      17.0685      2.00000
     34      21.4250      0.00000
     35      17.3632      2.00000
     36      22.4307      0.00000
     37      20.4289      0.00000
     38      25.6960      0.00000
     39      20.7594      0.00000
     40      26.2204      0.00000
     41      23.6523      0.00000
     42      27.1206      0.00000
     43      23.9249      0.00000
     44      19.8411      0.00000
     45      25.7352      0.00000
     46      26.0113      0.00000
     47      28.0114      0.00000
     48      20.1865      0.00000
     49      21.5810      0.00000
     50      17.7521      0.05095
     51      18.5059      0.00000
     52      20.5564      0.00000
     53      19.6041      0.00000
     54      26.0371      0.00000
     55      18.6098      0.00000
     56      18.6959      0.00000

 k-point     7 :       0.3333    0.3333    0.0000
  band No.  band energies     occupation 
      1      23.8942      0.00000
      2      25.0999      0.00000
      3      31.5133      0.00000
      4      24.9564      0.00000
      5      27.9817      0.00000
      6      31.8900      0.00000
      7      27.5441      0.00000
      8      25.0425      0.00000
      9      25.6612      0.00000
     10      20.4851      0.00000
     11      26.9731      0.00000
     12      23.3007      0.00000
     13      24.1111      0.00000
     14      27.9833      0.00000
     15      24.7671      0.00000
     16      27.3060      0.00000
     17      27.3036      0.00000
     18      28.3836      0.00000
     19      25.6418      0.00000
     20      24.0185      0.00000
     21      26.8624      0.00000
     22      28.5717      0.00000
     23      27.7389      0.00000
     24      26.4049      0.00000
     25      27.1598      0.00000
     26      23.8153      0.00000
     27      22.8441      0.00000
     28      27.7309      0.00000
     29      24.0475      0.00000
     30      35.3856      0.00000
     31      22.6155      0.00000
     32      28.4146      0.00000
     33      23.9583      0.00000
     34      27.5910      0.00000
     35      24.6532      0.00000
     36      23.5708      0.00000
     37      27.6151      0.00000
     38      28.7559      0.00000
     39      26.8781      0.00000
     40      29.4765      0.00000
     41      24.8767      0.00000
     42      26.2752      0.00000
     43      28.1656      0.00000
     44      28.1725      0.00000
     45      28.1384      0.00000
     46      27.2211      0.00000
     47      27.0509      0.00000
     48      29.1558      0.00000
     49      23.1548      0.00000
     50      29.8949      0.00000
     51      25.0131      0.00000
     52      21.7827      0.00000
     53      24.1437      0.00000
     54      29.1391      0.00000
     55      23.4259      0.00000
     56      27.3123      0.00000

 k-point     8 :       0.0000   -0.0000    0.5000
  band No.  band energies     occupation 
      1       0.3640      2.00000
      2       0.3241      2.00000
      3       0.6117      2.00000
      4       0.3556      2.00000
      5       0.3598      2.00000
      6       0.5469      2.00000
      7       0.6601      2.00000
      8       0.3593      2.00000
      9       8.2598      2.00000
     10       0.4629      2.00000
     11       0.2939      2.00000
     12       0.3086      2.00000
     13       0.3656      2.00000
     14       0.3817      2.00000
     15       0.5123      2.00000
     16       2.1426      2.00000
     17       0.6053      2.00000
     18       0.8836      2.00000
     19       1.4146      2.00000
     20       0.6602      2.00000
     21       0.3261      2.00000
     22       0.3175      2.00000
     23       0.7495      2.00000
     24       0.5099      2.00000
     25       0.5172      2.00000
     26       0.3790      2.00000
     27       0.8551      2.00000
     28       0.3678      2.00000
     29       1.3555      2.00000
     30       3.7923      2.00000
     31       0.3274      2.00000
     32       0.3649      2.00000
     33       0.3834      2.00000
     34       0.3985      2.00000
     35       0.3506      2.00000
     36       0.3167      2.00000
     37       0.3974      2.00000
     38       0.3008      2.00000
     39       0.5265      2.00000
     40       0.3736      2.00000
     41       0.3282      2.00000
     42       0.3036      2.00000
     43       0.7075      2.00000
     44       0.5794      2.00000
     45       0.4120      2.00000
     46       0.6177      2.00000
     47       0.4007      2.00000
     48       1.4494      2.00000
     49       0.6557      2.00000
     50       0.8561      2.00000
     51       0.3392      2.00000
     52       0.4127      2.00000
     53       0.3212      2.00000
     54       0.4183      2.00000
     55       0.5268      2.00000
     56       1.8602      2.00000

 k-point     9 :       0.1667    0.0000    0.5000
  band No.  band energies     occupation 
      1       2.9553      2.00000
      2       2.9122      2.00000
      3       3.0688      2.00000
      4       1.7976      2.00000
      5       2.3399      2.00000
      6       2.1840      2.00000
      7       6.1310      2.00000
      8       1.9408      2.00000
      9       1.9726      2.00000
     10       4.0704      2.00000
     11       2.2510      2.00000
     12       2.4556      2.00000
     13       4.7950      2.00000
     14       3.8682      2.00000
     15       2.1011      2.00000
     16       3.6666      2.00000
     17       4.4978      2.00000
     18       5.6190      2.00000
     19       2.9678      2.00000
     20       9.6695      2.00000
     21       2.3891      2.00000
     22      24.1768      0.00000
     23       2.8922      2.00000
     24       5.4604      2.00000
     25       2.3420      2.00000
     26       2.0162      2.00000
     27       6.3009      2.00000
     28       4.1300      2.00000
     29       2.1237      2.00000
     30       4.6416      2.00000
     31       5.6195      2.00000
     32       3.2605      2.00000
     33       2.0656      2.00000
     34       6.4053      2.00000
     35       2.6867      2.00000
     36       4.1918      2.00000
     37       1.9582      2.00000
     38       1.7365      2.00000
     39       1.9256      2.00000
     40       2.2716      2.00000
     41      12.9149      2.00000
     42      19.6821      0.00000
     43       4.3510      2.00000
     44       2.2402      2.00000
     45       6.0437      2.00000
     46       2.6615      2.00000
     47       4.1757      2.00000
     48       3.0525      2.00000
     49       2.7792      2.00000
     50       3.7152      2.00000
     51       3.1260      2.00000
     52       2.0930      2.00000
     53       2.1713      2.00000
     54       8.7538      2.00000
     55       2.8186      2.00000
     56       1.8753      2.00000

 k-point    10 :       0.3333    0.0000    0.5000
  band No.  band energies     occupation 
      1      14.3014      2.00000
      2      11.9658      2.00000
      3      12.6149      2.00000
      4      12.6104      2.00000
      5      14.6734      2.00000
      6      15.0540      2.00000
      7      30.6606      0.00000
      8      11.8181      2.00000
      9      14.5164      2.00000
     10      13.3693      2.00000
     11      27.0603      0.00000
     12      14.4608      2.00000
     13      11.9196      2.00000
     14      14.5085      2.00000
     15      26.6219      0.00000
     16      21.8120      0.00000
     17      13.9811      2.00000
     18       9.6806      2.00000
     19      11.8295      2.00000
     20      11.8165      2.00000
     21      20.5887      0.00000
     22      29.5547      0.00000
     23      22.2234      0.00000
     24      25.3295      0.00000
     25       9.9090      2.00000
     26      10.7373      2.00000
     27      12.1984      2.00000
     28      29.5646      0.00000
     29      10.9945      2.00000
     30      11.6630      2.00000
     31      10.9859      2.00000
     32      12.7611      2.00000
     33      15.1890      2.00000
     34      10.4304      2.00000
     35      12.4726      2.00000
     36      12.7550      2.00000
     37      26.4102      0.00000
     38      10.2263      2.00000
     39      13.3427      2.00000
     40      12.8338      2.00000
     41      10.0041      2.00000
     42      14.5759      2.00000
     43      11.0697      2.00000
     44      14.8641      2.00000
     45      23.2584      0.00000
     46      13.6345      2.00000
     47      12.4007      2.00000
     48      12.5451      2.00000
     49      28.3659      0.00000
     50      15.8190      2.00000
     51      28.9628      0.00000
     52      11.2142      2.00000
     53      20.4191      0.00000
     54      16.3119      2.00000
     55      23.2471      0.00000
     56      10.8491      2.00000

 k-point    11 :       0.5000   -0.0000    0.5000
  band No.  band energies     occupation 
      1      25.1792      0.00000
      2      21.4164      0.00000
      3      22.8308      0.00000
      4      19.4177      0.00000
      5      22.9904      0.00000
      6      25.9912      0.00000
      7      25.7700      0.00000
      8      19.0055      0.00000
      9      25.0316      0.00000
     10      21.3588      0.00000
     11      34.0287      0.00000
     12      23.8413      0.00000
     13      20.9269      0.00000
     14      24.3297      0.00000
     15      28.3647      0.00000
     16      24.4212      0.00000
     17      25.2537      0.00000
     18      25.4141      0.00000
     19      22.8333      0.00000
     20      25.6630      0.00000
     21      22.0049      0.00000
     22      23.0259      0.00000
     23      19.8643      0.00000
     24      21.0506      0.00000
     25      23.6753      0.00000
     26      21.8761      0.00000
     27      20.8498      0.00000
     28      20.6701      0.00000
     29      17.2370      2.00000
     30      29.6436      0.00000
     31      18.5540      0.00000
     32      23.7012      0.00000
     33      19.0810      0.00000
     34      23.2417      0.00000
     35      21.4403      0.00000
     36      25.3054      0.00000
     37      31.8847      0.00000
     38      24.5356      0.00000
     39      19.4017      0.00000
     40      22.8862      0.00000
     41      25.1861      0.00000
     42      19.7114      0.00000
     43      28.4066      0.00000
     44      18.1522      0.00000
     45      24.1999      0.00000
     46      27.3375      0.00000
     47      22.7807      0.00000
     48      21.2856      0.00000
     49      20.3893      0.00000
     50      21.8086      0.00000
     51      20.6794      0.00000
     52      27.1302      0.00000
     53      26.0953      0.00000
     54      20.7149      0.00000
     55      25.0025      0.00000
     56      28.6887      0.00000

 k-point    12 :       0.1667    0.1667    0.5000
  band No.  band energies     occupation 
      1      11.1607      2.00000
      2       6.7579      2.00000
      3      16.1897      2.00000
      4      10.8362      2.00000
      5      14.2988      2.00000
      6       9.8945      2.00000
      7      12.8044      2.00000
      8      10.6749      2.00000
      9      13.1364      2.00000
     10       9.0968      2.00000
     11      16.9269      2.00000
     12      27.1738      0.00000
     13       9.7239      2.00000
     14       7.7024      2.00000
     15      22.9214      0.00000
     16      18.4537      0.00000
     17      19.8683      0.00000
     18      11.1984      2.00000
     19       8.7697      2.00000
     20       7.4985      2.00000
     21      10.6104      2.00000
     22      13.3001      2.00000
     23      10.7573      2.00000
     24       8.2442      2.00000
     25       6.3440      2.00000
     26      11.2405      2.00000
     27      12.4749      2.00000
     28      19.6561      0.00000
     29      17.3539      2.00000
     30       9.9482      2.00000
     31       7.8420      2.00000
     32      14.5593      2.00000
     33       8.4220      2.00000
     34      10.0068      2.00000
     35      14.7269      2.00000
     36       9.9823      2.00000
     37       7.2190      2.00000
     38      10.7282      2.00000
     39       9.9676      2.00000
     40       9.7889      2.00000
     41      11.2260      2.00000
     42      10.8206      2.00000
     43      27.7658      0.00000
     44       9.3495      2.00000
     45      11.8232      2.00000
     46      12.3542      2.00000
     47      12.2816      2.00000
     48      11.6228      2.00000
     49      12.6486      2.00000
     50      10.4033      2.00000
     51       6.6019      2.00000
     52       9.3164      2.00000
     53      10.7971      2.00000
     54      15.9711      2.00000
     55       9.4648      2.00000
     56      13.5396      2.00000

 k-point    13 :       0.3333    0.1667    0.5000
  band No.  band energies     occupation 
      1      23.9005      0.00000
      2      26.4081      0.00000
      3      22.8154      0.00000
      4      23.0238      0.00000
      5      24.9352      0.00000
      6      25.1429      0.00000
      7      35.2342      0.00000
      8      17.9284      0.00000
      9      21.2370      0.00000
     10      23.9597      0.00000
     11      27.5064      0.00000
     12      24.1801      0.00000
     13      21.5836      0.00000
     14      24.3335      0.00000
     15      21.2925      0.00000
     16      22.7903      0.00000
     17      23.6172      0.00000
     18      20.1171      0.00000
     19      21.6145      0.00000
     20      21.8882      0.00000
     21      21.5045      0.00000
     22      20.3311      0.00000
     23      23.1464      0.00000
     24      17.9367      0.00000
     25      23.0462      0.00000
     26      22.6297      0.00000
     27      21.9613      0.00000
     28      24.0754      0.00000
     29      19.1600      0.00000
     30      19.3793      0.00000
     31      21.0331      0.00000
     32      26.6031      0.00000
     33      22.6604      0.00000
     34      20.2527      0.00000
     35      21.6036      0.00000
     36      31.3244      0.00000
     37      21.6522      0.00000
     38      23.2875      0.00000
     39      20.9472      0.00000
     40      21.2321      0.00000
     41      29.3702      0.00000
     42      30.2263      0.00000
     43      24.1722      0.00000
     44      22.1214      0.00000
     45      27.9842      0.00000
     46      21.5622      0.00000
     47      19.6249      0.00000
     48      25.4029      0.00000
     49      25.1155      0.00000
     50      20.2611      0.00000
     51      20.1270      0.00000
     52      23.7154      0.00000
     53      24.1377      0.00000
     54      18.1018      0.00000
     55      18.6608      0.00000
     56      28.9764      0.00000

 k-point    14 :       0.3333    0.3333    0.5000
  band No.  band energies     occupation 
      1      24.0689      0.00000
      2      25.4779      0.00000
      3      26.1587      0.00000
      4      22.8771      0.00000
      5      21.7928      0.00000
      6      25.6119      0.00000
      7      24.0251      0.00000
      8      27.1431      0.00000
      9      24.0325      0.00000
     10      21.4019      0.00000
     11      20.9937      0.00000
     12      25.4369      0.00000
     13      30.1784      0.00000
     14      21.1006      0.00000
     15      25.2445      0.00000
     16      23.6630      0.00000
     17      22.4759      0.00000
     18      26.1594      0.00000
     19      30.8929      0.00000
     20      23.9186      0.00000
     21      24.2222      0.00000
     22      22.5349      0.00000
     23      25.3211      0.00000
     24      30.6343      0.00000
     25      28.3008      0.00000
     26      23.7844      0.00000
     27      30.5925      0.00000
     28      29.7650      0.00000
     29      26.4887      0.00000
     30      21.9801      0.00000
     31      23.5954      0.00000
     32      24.4394      0.00000
     33      37.4044      0.00000
     34      24.6396      0.00000
     35      29.3104      0.00000
     36      21.7832      0.00000
     37      28.2640      0.00000
     38      25.2444      0.00000
     39      32.0919      0.00000
     40      23.4929      0.00000
     41      24.5438      0.00000
     42      25.0800      0.00000
     43      26.2918      0.00000
     44      24.7649      0.00000
     45      30.1894      0.00000
     46      26.7055      0.00000
     47      31.7590      0.00000
     48      23.6217      0.00000
     49      33.5206      0.00000
     50      20.5183      0.00000
     51      22.8876      0.00000
     52      24.0586      0.00000
     53      25.9891      0.00000
     54      27.3806      0.00000
     55      23.6759      0.00000
     56      25.0020      0.00000


--------------------------------------------------------------------------------------------------------


 soft charge-density along one line, spin component           1
         0         1         2         3         4         5         6         7         8         9
 total charge-density along one line
 
 pseudopotential strength for first ion, spin component:           1
 -5.750  10.568   0.000   0.000  -0.000  -0.000  -0.000   0.000
 10.568   3.322  -0.000  -0.000   0.000   0.000   0.000  -0.000
  0.000  -0.000 -17.353   0.000  -0.000   7.949  -0.000   0.000
  0.000  -0.000   0.000 -17.359   0.000  -0.000   7.957  -0.000
 -0.000   0.000  -0.000   0.000 -17.353   0.000  -0.000   7.949
 -0.000   0.000   7.949  -0.000   0.000   6.325   0.000  -0.000
 -0.000   0.000  -0.000   7.957  -0.000   0.000   6.322   0.000
  0.000  -0.000   0.000  -0.000   7.949  -0.000   0.000   6.325
 -0.000   0.000  -0.000  -0.000   0.008   0.000   0.000  -0.005
  0.000  -0.000   0.000  -0.000  -0.000  -0.000   0.000   0.000
 -0.005   0.003  -0.000   0.000   0.000   0.000  -0.000  -0.000
  0.000  -0.000  -0.000   0.000  -0.000   0.000  -0.000   0.000
  0.000  -0.000   0.008  -0.000  -0.000  -0.005   0.000   0.000
 -0.000   0.000  -0.000  -0.000   0.008   0.000   0.000  -0.005
  0.000  -0.000   0.000  -0.000  -0.000  -0.000   0.000   0.000
 -0.005   0.003  -0.000   0.000   0.000   0.000  -0.000  -0.000
  0.000  -0.000  -0.000   0.000  -0.000   0.000  -0.000   0.000
  0.000  -0.000   0.008  -0.000  -0.000  -0.005   0.000   0.000
 total augmentation occupancy for first ion, spin component:           1
  2.000   0.000   0.000   0.000   0.000   0.000   0.000   0.000   0.000   0.000   0.000   0.000   0.000   0.000   0.000   0.000
  0.000   1.000   0.000   0.000   0.000   0.000   0.000   0.000   0.000   0.000   0.000   0.000   0.000   0.000   0.000   0.000
  0.000   0.000   2.000   0.000   0.000   0.000   0.000   0.000   0.000   0.000   0.000   0.000   0.000   0.000   0.000   0.000
  0.000   0.000   0.000   2.000   0.000   0.000   0.000   0.000   0.000   0.000   0.000   0.000   0.000   0.000   0.000   0.000
  0.000   0.000   0.000   0.000   2.000   0.000   0.000   0.000   0.000   0.000   0.000   0.000   0.000   0.000   0.000   0.000
  0.000   0.000   0.000   0.000   0.000   0.000   0.000   0.000   0.000   0.000   0.000   0.000   0.000   0.000   0.000   0.000
  0.000   0.000   0.000   0.000   0.000   0.000   0.000   0.000   0.000   0.000   0.000   0.000   0.000   0.000   0.000   0.000
  0.000   0.000   0.000   0.000   0.000   0.000   0.000   0.000   0.000   0.000   0.000   0.000   0.000   0.000   0.000   0.000
  0.000   0.000   0.000   0.000   0.000   0.000   0.000   0.000   1.000   0.000   0.000   0.000   0.000   0.000   0.000   0.000
  0.000   0.000   0.000   0.000   0.000   0.000   0.000   0.000   0.000   1.000   0.000   0.000   0.000   0.000   0.000   0.000
  0.000   0.000   0.000   0.000   0.000   0.000   0.000   0.000   0.000   0.000   1.000   0.000   0.000   0.000   0.000   0.000
  0.000   0.000   0.000   0.000   0.000   0.000   0.000   0.000   0.000   0.000   0.000   1.000   0.000   0.000   0.000   0.000
  0.000   0.000   0.000   0.000   0.000   0.000   0.000   0.000   0.000   0.000   0.000   0.000   1.000   0.000   0.000   0.000
  0.000   0.000   0.000   0.000   0.000   0.000   0.000   0.000   0.000   0.000   0.000   0.000   0.000   0.000   0.000   0.000
  0.000   0.000   0.000   0.000   0.000   0.000   0.000   0.000   0.000   0.000   0.000   0.000   0.000   0.000   0.000   0.000
  0.000   0.000   0.000   0.000   0.000   0.000   0.000   0.000   0.000   0.000   0.000   0.000   0.000   0.000   0.000   0.000
  0.000   0.000   0.000   0.000   0.000   0.000   0.000   0.000   0.000   0.000   0.000   0.000   0.000   0.000   0.000   0.000
  0.000   0.000   0.000   0.000   0.000   0.000   0.000   0.000   0.000   0.000   0.000   0.000   0.000   0.000   0.000   0.000


------------------------ aborting loop because EDIFF is reached ----------------------------------------


 -----------------------------------------------------------------------------
|                                                                             |
|           W    W    AA    RRRRR   N    N  II  N    N   GGGG   !!!           |
|           W    W   A  A   R    R  NN   N  II  NN   N  G    G  !!!           |
|           W    W  A    A  R    R  N N  N  II  N N  N  G       !!!           |
|           W WW W  AAAAAA  RRRRR   N  N N  II  N  N N  G  GGG   !            |
|           WW  WW  A    A  R   R   N   NN  II  N   NN  G    G                |
|           W    W  A    A  R    R  N    N  II  N    N   GGGG   !!!           |
|                                                                             |
|     Your highest band is occupied at some k-points! Unless you are          |
|     performing a calculation for an insulator or semiconductor, without     |
|     unoccupied bands, you have included TOO FEW BANDS!! Please increase     |
|     the parameter NBANDS in file INCAR to ensure that the highest band      |
|     is unoccupied at all k-points. It is always recommended to include      |
|     a few unoccupied bands to accelerate the convergence of                 |
|     molecular-dynamics runs (even for insulators or semiconductors),        |
|     since the presence of unoccupied bands improves wavefunction            |
|     prediction and helps to suppress 'band-crossings'.                      |
|                                                                             |
 -----------------------------------------------------------------------------



--------------------------------------------------------------------------------------------------------



  FREE ENERGIE OF THE ION-ELECTRON SYSTEM (eV)
  ---------------------------------------------------
  free  energy   TOTEN  =       789.87618280 eV

  energy  without entropy=      789.88101025  energy(sigma->0) =      789.87859653
 


--------------------------------------------------------------------------------------------------------




--------------------------------------------------------------------------------------------------------


     LOOP+:  cpu time      0.0600: real time      0.1122
    4ORBIT:  cpu time      0.0000: real time      0.0000

 total amount of memory used by VASP MPI-rank0    37040. kBytes
=======================================================================

   base                                    :      30000. kBytes
   nonl-proj                               :       5548. kBytes
   fftplans                                :        149. kBytes
   grid                                    :        598. kBytes
   one-center                              :         93. kBytes
   wavefun                                 :        652. kBytes
 
  
  
 General timing and accounting informations for this job:
 ========================================================
  
                  Total CPU time used (sec):        0.764
                            User time (sec):        0.199
                          System time (sec):        0.565
                         Elapsed time (sec):        1.229
  
                   Maximum memory used (kb):      198956.
                   Average memory used (kb):          N/A
  
                          Minor page faults:        18900
                          Major page faults:          467
                 Voluntary context switches:          801
