bulk MoTe2                              
           1
     3.518981    0.000000    0.000000
    -1.759491    3.047527    0.000000
     0.000000    0.000000   14.036946
   Mo   Te
     2     4
Direct configuration=     1
   0.33333333  0.66666665  0.25000000
   0.66666664  0.33333335  0.75000000
   0.33333329  0.66666668  0.62074578
   0.66666668  0.33333332  0.37925422
   0.66666665  0.33333331  0.12074578
   0.33333332  0.66666669  0.87925422
